PSF EXT CMAP XPLOR

         3 !NTITLE
* GENERATED BY CHARMM-GUI (HTTP://WWW.CHARMM-GUI.ORG) V3.7 ON DEC, 01. 2025. JOB
* GET A DIFFERENT CONFORMATION FOR LIPIDS PENETRATING PROTEIN / CHOL            
*  DATE:    12/ 1/25      8: 4: 6      CREATED BY USER: charmm-gui              

     13468 !NATOM
         1 PROA     1        GLY      N        NH3     -0.300000       14.0070           0
         2 PROA     1        GLY      HT1      HC       0.330000       1.00800           0
         3 PROA     1        GLY      HT2      HC       0.330000       1.00800           0
         4 PROA     1        GLY      HT3      HC       0.330000       1.00800           0
         5 PROA     1        GLY      CA       CT2      0.130000       12.0110           0
         6 PROA     1        GLY      HA1      HB2      0.900000E-01   1.00800           0
         7 PROA     1        GLY      HA2      HB2      0.900000E-01   1.00800           0
         8 PROA     1        GLY      C        C        0.510000       12.0110           0
         9 PROA     1        GLY      O        O       -0.510000       15.9994           0
        10 PROA     2        ILE      N        NH1     -0.470000       14.0070           0
        11 PROA     2        ILE      HN       H        0.310000       1.00800           0
        12 PROA     2        ILE      CA       CT1      0.700000E-01   12.0110           0
        13 PROA     2        ILE      HA       HB1      0.900000E-01   1.00800           0
        14 PROA     2        ILE      CB       CT1     -0.900000E-01   12.0110           0
        15 PROA     2        ILE      HB       HA1      0.900000E-01   1.00800           0
        16 PROA     2        ILE      CG2      CT3     -0.270000       12.0110           0
        17 PROA     2        ILE      HG21     HA3      0.900000E-01   1.00800           0
        18 PROA     2        ILE      HG22     HA3      0.900000E-01   1.00800           0
        19 PROA     2        ILE      HG23     HA3      0.900000E-01   1.00800           0
        20 PROA     2        ILE      CG1      CT2     -0.180000       12.0110           0
        21 PROA     2        ILE      HG11     HA2      0.900000E-01   1.00800           0
        22 PROA     2        ILE      HG12     HA2      0.900000E-01   1.00800           0
        23 PROA     2        ILE      CD       CT3     -0.270000       12.0110           0
        24 PROA     2        ILE      HD1      HA3      0.900000E-01   1.00800           0
        25 PROA     2        ILE      HD2      HA3      0.900000E-01   1.00800           0
        26 PROA     2        ILE      HD3      HA3      0.900000E-01   1.00800           0
        27 PROA     2        ILE      C        C        0.510000       12.0110           0
        28 PROA     2        ILE      O        O       -0.510000       15.9994           0
        29 PROA     3        GLY      N        NH1     -0.470000       14.0070           0
        30 PROA     3        GLY      HN       H        0.310000       1.00800           0
        31 PROA     3        GLY      CA       CT2     -0.200000E-01   12.0110           0
        32 PROA     3        GLY      HA1      HB2      0.900000E-01   1.00800           0
        33 PROA     3        GLY      HA2      HB2      0.900000E-01   1.00800           0
        34 PROA     3        GLY      C        C        0.510000       12.0110           0
        35 PROA     3        GLY      O        O       -0.510000       15.9994           0
        36 PROA     4        ALA      N        NH1     -0.470000       14.0070           0
        37 PROA     4        ALA      HN       H        0.310000       1.00800           0
        38 PROA     4        ALA      CA       CT1      0.700000E-01   12.0110           0
        39 PROA     4        ALA      HA       HB1      0.900000E-01   1.00800           0
        40 PROA     4        ALA      CB       CT3     -0.270000       12.0110           0
        41 PROA     4        ALA      HB1      HA3      0.900000E-01   1.00800           0
        42 PROA     4        ALA      HB2      HA3      0.900000E-01   1.00800           0
        43 PROA     4        ALA      HB3      HA3      0.900000E-01   1.00800           0
        44 PROA     4        ALA      C        C        0.510000       12.0110           0
        45 PROA     4        ALA      O        O       -0.510000       15.9994           0
        46 PROA     5        VAL      N        NH1     -0.470000       14.0070           0
        47 PROA     5        VAL      HN       H        0.310000       1.00800           0
        48 PROA     5        VAL      CA       CT1      0.700000E-01   12.0110           0
        49 PROA     5        VAL      HA       HB1      0.900000E-01   1.00800           0
        50 PROA     5        VAL      CB       CT1     -0.900000E-01   12.0110           0
        51 PROA     5        VAL      HB       HA1      0.900000E-01   1.00800           0
        52 PROA     5        VAL      CG1      CT3     -0.270000       12.0110           0
        53 PROA     5        VAL      HG11     HA3      0.900000E-01   1.00800           0
        54 PROA     5        VAL      HG12     HA3      0.900000E-01   1.00800           0
        55 PROA     5        VAL      HG13     HA3      0.900000E-01   1.00800           0
        56 PROA     5        VAL      CG2      CT3     -0.270000       12.0110           0
        57 PROA     5        VAL      HG21     HA3      0.900000E-01   1.00800           0
        58 PROA     5        VAL      HG22     HA3      0.900000E-01   1.00800           0
        59 PROA     5        VAL      HG23     HA3      0.900000E-01   1.00800           0
        60 PROA     5        VAL      C        C        0.510000       12.0110           0
        61 PROA     5        VAL      O        O       -0.510000       15.9994           0
        62 PROA     6        LEU      N        NH1     -0.470000       14.0070           0
        63 PROA     6        LEU      HN       H        0.310000       1.00800           0
        64 PROA     6        LEU      CA       CT1      0.700000E-01   12.0110           0
        65 PROA     6        LEU      HA       HB1      0.900000E-01   1.00800           0
        66 PROA     6        LEU      CB       CT2     -0.180000       12.0110           0
        67 PROA     6        LEU      HB1      HA2      0.900000E-01   1.00800           0
        68 PROA     6        LEU      HB2      HA2      0.900000E-01   1.00800           0
        69 PROA     6        LEU      CG       CT1     -0.900000E-01   12.0110           0
        70 PROA     6        LEU      HG       HA1      0.900000E-01   1.00800           0
        71 PROA     6        LEU      CD1      CT3     -0.270000       12.0110           0
        72 PROA     6        LEU      HD11     HA3      0.900000E-01   1.00800           0
        73 PROA     6        LEU      HD12     HA3      0.900000E-01   1.00800           0
        74 PROA     6        LEU      HD13     HA3      0.900000E-01   1.00800           0
        75 PROA     6        LEU      CD2      CT3     -0.270000       12.0110           0
        76 PROA     6        LEU      HD21     HA3      0.900000E-01   1.00800           0
        77 PROA     6        LEU      HD22     HA3      0.900000E-01   1.00800           0
        78 PROA     6        LEU      HD23     HA3      0.900000E-01   1.00800           0
        79 PROA     6        LEU      C        C        0.510000       12.0110           0
        80 PROA     6        LEU      O        O       -0.510000       15.9994           0
        81 PROA     7        LYS      N        NH1     -0.470000       14.0070           0
        82 PROA     7        LYS      HN       H        0.310000       1.00800           0
        83 PROA     7        LYS      CA       CT1      0.700000E-01   12.0110           0
        84 PROA     7        LYS      HA       HB1      0.900000E-01   1.00800           0
        85 PROA     7        LYS      CB       CT2     -0.180000       12.0110           0
        86 PROA     7        LYS      HB1      HA2      0.900000E-01   1.00800           0
        87 PROA     7        LYS      HB2      HA2      0.900000E-01   1.00800           0
        88 PROA     7        LYS      CG       CT2     -0.180000       12.0110           0
        89 PROA     7        LYS      HG1      HA2      0.900000E-01   1.00800           0
        90 PROA     7        LYS      HG2      HA2      0.900000E-01   1.00800           0
        91 PROA     7        LYS      CD       CT2     -0.180000       12.0110           0
        92 PROA     7        LYS      HD1      HA2      0.900000E-01   1.00800           0
        93 PROA     7        LYS      HD2      HA2      0.900000E-01   1.00800           0
        94 PROA     7        LYS      CE       CT2      0.210000       12.0110           0
        95 PROA     7        LYS      HE1      HA2      0.500000E-01   1.00800           0
        96 PROA     7        LYS      HE2      HA2      0.500000E-01   1.00800           0
        97 PROA     7        LYS      NZ       NH3     -0.300000       14.0070           0
        98 PROA     7        LYS      HZ1      HC       0.330000       1.00800           0
        99 PROA     7        LYS      HZ2      HC       0.330000       1.00800           0
       100 PROA     7        LYS      HZ3      HC       0.330000       1.00800           0
       101 PROA     7        LYS      C        C        0.510000       12.0110           0
       102 PROA     7        LYS      O        O       -0.510000       15.9994           0
       103 PROA     8        VAL      N        NH1     -0.470000       14.0070           0
       104 PROA     8        VAL      HN       H        0.310000       1.00800           0
       105 PROA     8        VAL      CA       CT1      0.700000E-01   12.0110           0
       106 PROA     8        VAL      HA       HB1      0.900000E-01   1.00800           0
       107 PROA     8        VAL      CB       CT1     -0.900000E-01   12.0110           0
       108 PROA     8        VAL      HB       HA1      0.900000E-01   1.00800           0
       109 PROA     8        VAL      CG1      CT3     -0.270000       12.0110           0
       110 PROA     8        VAL      HG11     HA3      0.900000E-01   1.00800           0
       111 PROA     8        VAL      HG12     HA3      0.900000E-01   1.00800           0
       112 PROA     8        VAL      HG13     HA3      0.900000E-01   1.00800           0
       113 PROA     8        VAL      CG2      CT3     -0.270000       12.0110           0
       114 PROA     8        VAL      HG21     HA3      0.900000E-01   1.00800           0
       115 PROA     8        VAL      HG22     HA3      0.900000E-01   1.00800           0
       116 PROA     8        VAL      HG23     HA3      0.900000E-01   1.00800           0
       117 PROA     8        VAL      C        C        0.510000       12.0110           0
       118 PROA     8        VAL      O        O       -0.510000       15.9994           0
       119 PROA     9        LEU      N        NH1     -0.470000       14.0070           0
       120 PROA     9        LEU      HN       H        0.310000       1.00800           0
       121 PROA     9        LEU      CA       CT1      0.700000E-01   12.0110           0
       122 PROA     9        LEU      HA       HB1      0.900000E-01   1.00800           0
       123 PROA     9        LEU      CB       CT2     -0.180000       12.0110           0
       124 PROA     9        LEU      HB1      HA2      0.900000E-01   1.00800           0
       125 PROA     9        LEU      HB2      HA2      0.900000E-01   1.00800           0
       126 PROA     9        LEU      CG       CT1     -0.900000E-01   12.0110           0
       127 PROA     9        LEU      HG       HA1      0.900000E-01   1.00800           0
       128 PROA     9        LEU      CD1      CT3     -0.270000       12.0110           0
       129 PROA     9        LEU      HD11     HA3      0.900000E-01   1.00800           0
       130 PROA     9        LEU      HD12     HA3      0.900000E-01   1.00800           0
       131 PROA     9        LEU      HD13     HA3      0.900000E-01   1.00800           0
       132 PROA     9        LEU      CD2      CT3     -0.270000       12.0110           0
       133 PROA     9        LEU      HD21     HA3      0.900000E-01   1.00800           0
       134 PROA     9        LEU      HD22     HA3      0.900000E-01   1.00800           0
       135 PROA     9        LEU      HD23     HA3      0.900000E-01   1.00800           0
       136 PROA     9        LEU      C        C        0.510000       12.0110           0
       137 PROA     9        LEU      O        O       -0.510000       15.9994           0
       138 PROA     10       THR      N        NH1     -0.470000       14.0070           0
       139 PROA     10       THR      HN       H        0.310000       1.00800           0
       140 PROA     10       THR      CA       CT1      0.700000E-01   12.0110           0
       141 PROA     10       THR      HA       HB1      0.900000E-01   1.00800           0
       142 PROA     10       THR      CB       CT1      0.140000       12.0110           0
       143 PROA     10       THR      HB       HA1      0.900000E-01   1.00800           0
       144 PROA     10       THR      OG1      OH1     -0.660000       15.9994           0
       145 PROA     10       THR      HG1      H        0.430000       1.00800           0
       146 PROA     10       THR      CG2      CT3     -0.270000       12.0110           0
       147 PROA     10       THR      HG21     HA3      0.900000E-01   1.00800           0
       148 PROA     10       THR      HG22     HA3      0.900000E-01   1.00800           0
       149 PROA     10       THR      HG23     HA3      0.900000E-01   1.00800           0
       150 PROA     10       THR      C        C        0.510000       12.0110           0
       151 PROA     10       THR      O        O       -0.510000       15.9994           0
       152 PROA     11       THR      N        NH1     -0.470000       14.0070           0
       153 PROA     11       THR      HN       H        0.310000       1.00800           0
       154 PROA     11       THR      CA       CT1      0.700000E-01   12.0110           0
       155 PROA     11       THR      HA       HB1      0.900000E-01   1.00800           0
       156 PROA     11       THR      CB       CT1      0.140000       12.0110           0
       157 PROA     11       THR      HB       HA1      0.900000E-01   1.00800           0
       158 PROA     11       THR      OG1      OH1     -0.660000       15.9994           0
       159 PROA     11       THR      HG1      H        0.430000       1.00800           0
       160 PROA     11       THR      CG2      CT3     -0.270000       12.0110           0
       161 PROA     11       THR      HG21     HA3      0.900000E-01   1.00800           0
       162 PROA     11       THR      HG22     HA3      0.900000E-01   1.00800           0
       163 PROA     11       THR      HG23     HA3      0.900000E-01   1.00800           0
       164 PROA     11       THR      C        C        0.510000       12.0110           0
       165 PROA     11       THR      O        O       -0.510000       15.9994           0
       166 PROA     12       GLY      N        NH1     -0.470000       14.0070           0
       167 PROA     12       GLY      HN       H        0.310000       1.00800           0
       168 PROA     12       GLY      CA       CT2     -0.200000E-01   12.0110           0
       169 PROA     12       GLY      HA1      HB2      0.900000E-01   1.00800           0
       170 PROA     12       GLY      HA2      HB2      0.900000E-01   1.00800           0
       171 PROA     12       GLY      C        C        0.510000       12.0110           0
       172 PROA     12       GLY      O        O       -0.510000       15.9994           0
       173 PROA     13       LEU      N        NH1     -0.470000       14.0070           0
       174 PROA     13       LEU      HN       H        0.310000       1.00800           0
       175 PROA     13       LEU      CA       CT1      0.700000E-01   12.0110           0
       176 PROA     13       LEU      HA       HB1      0.900000E-01   1.00800           0
       177 PROA     13       LEU      CB       CT2     -0.180000       12.0110           0
       178 PROA     13       LEU      HB1      HA2      0.900000E-01   1.00800           0
       179 PROA     13       LEU      HB2      HA2      0.900000E-01   1.00800           0
       180 PROA     13       LEU      CG       CT1     -0.900000E-01   12.0110           0
       181 PROA     13       LEU      HG       HA1      0.900000E-01   1.00800           0
       182 PROA     13       LEU      CD1      CT3     -0.270000       12.0110           0
       183 PROA     13       LEU      HD11     HA3      0.900000E-01   1.00800           0
       184 PROA     13       LEU      HD12     HA3      0.900000E-01   1.00800           0
       185 PROA     13       LEU      HD13     HA3      0.900000E-01   1.00800           0
       186 PROA     13       LEU      CD2      CT3     -0.270000       12.0110           0
       187 PROA     13       LEU      HD21     HA3      0.900000E-01   1.00800           0
       188 PROA     13       LEU      HD22     HA3      0.900000E-01   1.00800           0
       189 PROA     13       LEU      HD23     HA3      0.900000E-01   1.00800           0
       190 PROA     13       LEU      C        C        0.510000       12.0110           0
       191 PROA     13       LEU      O        O       -0.510000       15.9994           0
       192 PROA     14       PRO      N        N       -0.290000       14.0070           0
       193 PROA     14       PRO      CD       CP3       0.00000       12.0110           0
       194 PROA     14       PRO      HD1      HA2      0.900000E-01   1.00800           0
       195 PROA     14       PRO      HD2      HA2      0.900000E-01   1.00800           0
       196 PROA     14       PRO      CA       CP1      0.200000E-01   12.0110           0
       197 PROA     14       PRO      HA       HB1      0.900000E-01   1.00800           0
       198 PROA     14       PRO      CB       CP2     -0.180000       12.0110           0
       199 PROA     14       PRO      HB1      HA2      0.900000E-01   1.00800           0
       200 PROA     14       PRO      HB2      HA2      0.900000E-01   1.00800           0
       201 PROA     14       PRO      CG       CP2     -0.180000       12.0110           0
       202 PROA     14       PRO      HG1      HA2      0.900000E-01   1.00800           0
       203 PROA     14       PRO      HG2      HA2      0.900000E-01   1.00800           0
       204 PROA     14       PRO      C        C        0.510000       12.0110           0
       205 PROA     14       PRO      O        O       -0.510000       15.9994           0
       206 PROA     15       ALA      N        NH1     -0.470000       14.0070           0
       207 PROA     15       ALA      HN       H        0.310000       1.00800           0
       208 PROA     15       ALA      CA       CT1      0.700000E-01   12.0110           0
       209 PROA     15       ALA      HA       HB1      0.900000E-01   1.00800           0
       210 PROA     15       ALA      CB       CT3     -0.270000       12.0110           0
       211 PROA     15       ALA      HB1      HA3      0.900000E-01   1.00800           0
       212 PROA     15       ALA      HB2      HA3      0.900000E-01   1.00800           0
       213 PROA     15       ALA      HB3      HA3      0.900000E-01   1.00800           0
       214 PROA     15       ALA      C        C        0.510000       12.0110           0
       215 PROA     15       ALA      O        O       -0.510000       15.9994           0
       216 PROA     16       LEU      N        NH1     -0.470000       14.0070           0
       217 PROA     16       LEU      HN       H        0.310000       1.00800           0
       218 PROA     16       LEU      CA       CT1      0.700000E-01   12.0110           0
       219 PROA     16       LEU      HA       HB1      0.900000E-01   1.00800           0
       220 PROA     16       LEU      CB       CT2     -0.180000       12.0110           0
       221 PROA     16       LEU      HB1      HA2      0.900000E-01   1.00800           0
       222 PROA     16       LEU      HB2      HA2      0.900000E-01   1.00800           0
       223 PROA     16       LEU      CG       CT1     -0.900000E-01   12.0110           0
       224 PROA     16       LEU      HG       HA1      0.900000E-01   1.00800           0
       225 PROA     16       LEU      CD1      CT3     -0.270000       12.0110           0
       226 PROA     16       LEU      HD11     HA3      0.900000E-01   1.00800           0
       227 PROA     16       LEU      HD12     HA3      0.900000E-01   1.00800           0
       228 PROA     16       LEU      HD13     HA3      0.900000E-01   1.00800           0
       229 PROA     16       LEU      CD2      CT3     -0.270000       12.0110           0
       230 PROA     16       LEU      HD21     HA3      0.900000E-01   1.00800           0
       231 PROA     16       LEU      HD22     HA3      0.900000E-01   1.00800           0
       232 PROA     16       LEU      HD23     HA3      0.900000E-01   1.00800           0
       233 PROA     16       LEU      C        C        0.510000       12.0110           0
       234 PROA     16       LEU      O        O       -0.510000       15.9994           0
       235 PROA     17       ILE      N        NH1     -0.470000       14.0070           0
       236 PROA     17       ILE      HN       H        0.310000       1.00800           0
       237 PROA     17       ILE      CA       CT1      0.700000E-01   12.0110           0
       238 PROA     17       ILE      HA       HB1      0.900000E-01   1.00800           0
       239 PROA     17       ILE      CB       CT1     -0.900000E-01   12.0110           0
       240 PROA     17       ILE      HB       HA1      0.900000E-01   1.00800           0
       241 PROA     17       ILE      CG2      CT3     -0.270000       12.0110           0
       242 PROA     17       ILE      HG21     HA3      0.900000E-01   1.00800           0
       243 PROA     17       ILE      HG22     HA3      0.900000E-01   1.00800           0
       244 PROA     17       ILE      HG23     HA3      0.900000E-01   1.00800           0
       245 PROA     17       ILE      CG1      CT2     -0.180000       12.0110           0
       246 PROA     17       ILE      HG11     HA2      0.900000E-01   1.00800           0
       247 PROA     17       ILE      HG12     HA2      0.900000E-01   1.00800           0
       248 PROA     17       ILE      CD       CT3     -0.270000       12.0110           0
       249 PROA     17       ILE      HD1      HA3      0.900000E-01   1.00800           0
       250 PROA     17       ILE      HD2      HA3      0.900000E-01   1.00800           0
       251 PROA     17       ILE      HD3      HA3      0.900000E-01   1.00800           0
       252 PROA     17       ILE      C        C        0.510000       12.0110           0
       253 PROA     17       ILE      O        O       -0.510000       15.9994           0
       254 PROA     18       SER      N        NH1     -0.470000       14.0070           0
       255 PROA     18       SER      HN       H        0.310000       1.00800           0
       256 PROA     18       SER      CA       CT1      0.700000E-01   12.0110           0
       257 PROA     18       SER      HA       HB1      0.900000E-01   1.00800           0
       258 PROA     18       SER      CB       CT2      0.500000E-01   12.0110           0
       259 PROA     18       SER      HB1      HA2      0.900000E-01   1.00800           0
       260 PROA     18       SER      HB2      HA2      0.900000E-01   1.00800           0
       261 PROA     18       SER      OG       OH1     -0.660000       15.9994           0
       262 PROA     18       SER      HG1      H        0.430000       1.00800           0
       263 PROA     18       SER      C        C        0.510000       12.0110           0
       264 PROA     18       SER      O        O       -0.510000       15.9994           0
       265 PROA     19       TRP      N        NH1     -0.470000       14.0070           0
       266 PROA     19       TRP      HN       H        0.310000       1.00800           0
       267 PROA     19       TRP      CA       CT1      0.700000E-01   12.0110           0
       268 PROA     19       TRP      HA       HB1      0.900000E-01   1.00800           0
       269 PROA     19       TRP      CB       CT2     -0.180000       12.0110           0
       270 PROA     19       TRP      HB1      HA2      0.900000E-01   1.00800           0
       271 PROA     19       TRP      HB2      HA2      0.900000E-01   1.00800           0
       272 PROA     19       TRP      CG       CY      -0.300000E-01   12.0110           0
       273 PROA     19       TRP      CD1      CA      -0.150000       12.0110           0
       274 PROA     19       TRP      HD1      HP       0.220000       1.00800           0
       275 PROA     19       TRP      NE1      NY      -0.510000       14.0070           0
       276 PROA     19       TRP      HE1      H        0.370000       1.00800           0
       277 PROA     19       TRP      CE2      CPT      0.240000       12.0110           0
       278 PROA     19       TRP      CD2      CPT      0.110000       12.0110           0
       279 PROA     19       TRP      CE3      CAI     -0.250000       12.0110           0
       280 PROA     19       TRP      HE3      HP       0.170000       1.00800           0
       281 PROA     19       TRP      CZ3      CA      -0.200000       12.0110           0
       282 PROA     19       TRP      HZ3      HP       0.140000       1.00800           0
       283 PROA     19       TRP      CZ2      CAI     -0.270000       12.0110           0
       284 PROA     19       TRP      HZ2      HP       0.160000       1.00800           0
       285 PROA     19       TRP      CH2      CA      -0.140000       12.0110           0
       286 PROA     19       TRP      HH2      HP       0.140000       1.00800           0
       287 PROA     19       TRP      C        C        0.510000       12.0110           0
       288 PROA     19       TRP      O        O       -0.510000       15.9994           0
       289 PROA     20       ILE      N        NH1     -0.470000       14.0070           0
       290 PROA     20       ILE      HN       H        0.310000       1.00800           0
       291 PROA     20       ILE      CA       CT1      0.700000E-01   12.0110           0
       292 PROA     20       ILE      HA       HB1      0.900000E-01   1.00800           0
       293 PROA     20       ILE      CB       CT1     -0.900000E-01   12.0110           0
       294 PROA     20       ILE      HB       HA1      0.900000E-01   1.00800           0
       295 PROA     20       ILE      CG2      CT3     -0.270000       12.0110           0
       296 PROA     20       ILE      HG21     HA3      0.900000E-01   1.00800           0
       297 PROA     20       ILE      HG22     HA3      0.900000E-01   1.00800           0
       298 PROA     20       ILE      HG23     HA3      0.900000E-01   1.00800           0
       299 PROA     20       ILE      CG1      CT2     -0.180000       12.0110           0
       300 PROA     20       ILE      HG11     HA2      0.900000E-01   1.00800           0
       301 PROA     20       ILE      HG12     HA2      0.900000E-01   1.00800           0
       302 PROA     20       ILE      CD       CT3     -0.270000       12.0110           0
       303 PROA     20       ILE      HD1      HA3      0.900000E-01   1.00800           0
       304 PROA     20       ILE      HD2      HA3      0.900000E-01   1.00800           0
       305 PROA     20       ILE      HD3      HA3      0.900000E-01   1.00800           0
       306 PROA     20       ILE      C        C        0.510000       12.0110           0
       307 PROA     20       ILE      O        O       -0.510000       15.9994           0
       308 PROA     21       LYS      N        NH1     -0.470000       14.0070           0
       309 PROA     21       LYS      HN       H        0.310000       1.00800           0
       310 PROA     21       LYS      CA       CT1      0.700000E-01   12.0110           0
       311 PROA     21       LYS      HA       HB1      0.900000E-01   1.00800           0
       312 PROA     21       LYS      CB       CT2     -0.180000       12.0110           0
       313 PROA     21       LYS      HB1      HA2      0.900000E-01   1.00800           0
       314 PROA     21       LYS      HB2      HA2      0.900000E-01   1.00800           0
       315 PROA     21       LYS      CG       CT2     -0.180000       12.0110           0
       316 PROA     21       LYS      HG1      HA2      0.900000E-01   1.00800           0
       317 PROA     21       LYS      HG2      HA2      0.900000E-01   1.00800           0
       318 PROA     21       LYS      CD       CT2     -0.180000       12.0110           0
       319 PROA     21       LYS      HD1      HA2      0.900000E-01   1.00800           0
       320 PROA     21       LYS      HD2      HA2      0.900000E-01   1.00800           0
       321 PROA     21       LYS      CE       CT2      0.210000       12.0110           0
       322 PROA     21       LYS      HE1      HA2      0.500000E-01   1.00800           0
       323 PROA     21       LYS      HE2      HA2      0.500000E-01   1.00800           0
       324 PROA     21       LYS      NZ       NH3     -0.300000       14.0070           0
       325 PROA     21       LYS      HZ1      HC       0.330000       1.00800           0
       326 PROA     21       LYS      HZ2      HC       0.330000       1.00800           0
       327 PROA     21       LYS      HZ3      HC       0.330000       1.00800           0
       328 PROA     21       LYS      C        C        0.510000       12.0110           0
       329 PROA     21       LYS      O        O       -0.510000       15.9994           0
       330 PROA     22       ARG      N        NH1     -0.470000       14.0070           0
       331 PROA     22       ARG      HN       H        0.310000       1.00800           0
       332 PROA     22       ARG      CA       CT1      0.700000E-01   12.0110           0
       333 PROA     22       ARG      HA       HB1      0.900000E-01   1.00800           0
       334 PROA     22       ARG      CB       CT2     -0.180000       12.0110           0
       335 PROA     22       ARG      HB1      HA2      0.900000E-01   1.00800           0
       336 PROA     22       ARG      HB2      HA2      0.900000E-01   1.00800           0
       337 PROA     22       ARG      CG       CT2     -0.180000       12.0110           0
       338 PROA     22       ARG      HG1      HA2      0.900000E-01   1.00800           0
       339 PROA     22       ARG      HG2      HA2      0.900000E-01   1.00800           0
       340 PROA     22       ARG      CD       CT2      0.200000       12.0110           0
       341 PROA     22       ARG      HD1      HA2      0.900000E-01   1.00800           0
       342 PROA     22       ARG      HD2      HA2      0.900000E-01   1.00800           0
       343 PROA     22       ARG      NE       NC2     -0.700000       14.0070           0
       344 PROA     22       ARG      HE       HC       0.440000       1.00800           0
       345 PROA     22       ARG      CZ       C        0.640000       12.0110           0
       346 PROA     22       ARG      NH1      NC2     -0.800000       14.0070           0
       347 PROA     22       ARG      HH11     HC       0.460000       1.00800           0
       348 PROA     22       ARG      HH12     HC       0.460000       1.00800           0
       349 PROA     22       ARG      NH2      NC2     -0.800000       14.0070           0
       350 PROA     22       ARG      HH21     HC       0.460000       1.00800           0
       351 PROA     22       ARG      HH22     HC       0.460000       1.00800           0
       352 PROA     22       ARG      C        C        0.510000       12.0110           0
       353 PROA     22       ARG      O        O       -0.510000       15.9994           0
       354 PROA     23       LYS      N        NH1     -0.470000       14.0070           0
       355 PROA     23       LYS      HN       H        0.310000       1.00800           0
       356 PROA     23       LYS      CA       CT1      0.700000E-01   12.0110           0
       357 PROA     23       LYS      HA       HB1      0.900000E-01   1.00800           0
       358 PROA     23       LYS      CB       CT2     -0.180000       12.0110           0
       359 PROA     23       LYS      HB1      HA2      0.900000E-01   1.00800           0
       360 PROA     23       LYS      HB2      HA2      0.900000E-01   1.00800           0
       361 PROA     23       LYS      CG       CT2     -0.180000       12.0110           0
       362 PROA     23       LYS      HG1      HA2      0.900000E-01   1.00800           0
       363 PROA     23       LYS      HG2      HA2      0.900000E-01   1.00800           0
       364 PROA     23       LYS      CD       CT2     -0.180000       12.0110           0
       365 PROA     23       LYS      HD1      HA2      0.900000E-01   1.00800           0
       366 PROA     23       LYS      HD2      HA2      0.900000E-01   1.00800           0
       367 PROA     23       LYS      CE       CT2      0.210000       12.0110           0
       368 PROA     23       LYS      HE1      HA2      0.500000E-01   1.00800           0
       369 PROA     23       LYS      HE2      HA2      0.500000E-01   1.00800           0
       370 PROA     23       LYS      NZ       NH3     -0.300000       14.0070           0
       371 PROA     23       LYS      HZ1      HC       0.330000       1.00800           0
       372 PROA     23       LYS      HZ2      HC       0.330000       1.00800           0
       373 PROA     23       LYS      HZ3      HC       0.330000       1.00800           0
       374 PROA     23       LYS      C        C        0.510000       12.0110           0
       375 PROA     23       LYS      O        O       -0.510000       15.9994           0
       376 PROA     24       ARG      N        NH1     -0.470000       14.0070           0
       377 PROA     24       ARG      HN       H        0.310000       1.00800           0
       378 PROA     24       ARG      CA       CT1      0.700000E-01   12.0110           0
       379 PROA     24       ARG      HA       HB1      0.900000E-01   1.00800           0
       380 PROA     24       ARG      CB       CT2     -0.180000       12.0110           0
       381 PROA     24       ARG      HB1      HA2      0.900000E-01   1.00800           0
       382 PROA     24       ARG      HB2      HA2      0.900000E-01   1.00800           0
       383 PROA     24       ARG      CG       CT2     -0.180000       12.0110           0
       384 PROA     24       ARG      HG1      HA2      0.900000E-01   1.00800           0
       385 PROA     24       ARG      HG2      HA2      0.900000E-01   1.00800           0
       386 PROA     24       ARG      CD       CT2      0.200000       12.0110           0
       387 PROA     24       ARG      HD1      HA2      0.900000E-01   1.00800           0
       388 PROA     24       ARG      HD2      HA2      0.900000E-01   1.00800           0
       389 PROA     24       ARG      NE       NC2     -0.700000       14.0070           0
       390 PROA     24       ARG      HE       HC       0.440000       1.00800           0
       391 PROA     24       ARG      CZ       C        0.640000       12.0110           0
       392 PROA     24       ARG      NH1      NC2     -0.800000       14.0070           0
       393 PROA     24       ARG      HH11     HC       0.460000       1.00800           0
       394 PROA     24       ARG      HH12     HC       0.460000       1.00800           0
       395 PROA     24       ARG      NH2      NC2     -0.800000       14.0070           0
       396 PROA     24       ARG      HH21     HC       0.460000       1.00800           0
       397 PROA     24       ARG      HH22     HC       0.460000       1.00800           0
       398 PROA     24       ARG      C        C        0.510000       12.0110           0
       399 PROA     24       ARG      O        O       -0.510000       15.9994           0
       400 PROA     25       GLN      N        NH1     -0.470000       14.0070           0
       401 PROA     25       GLN      HN       H        0.310000       1.00800           0
       402 PROA     25       GLN      CA       CT1      0.700000E-01   12.0110           0
       403 PROA     25       GLN      HA       HB1      0.900000E-01   1.00800           0
       404 PROA     25       GLN      CB       CT2     -0.180000       12.0110           0
       405 PROA     25       GLN      HB1      HA2      0.900000E-01   1.00800           0
       406 PROA     25       GLN      HB2      HA2      0.900000E-01   1.00800           0
       407 PROA     25       GLN      CG       CT2     -0.180000       12.0110           0
       408 PROA     25       GLN      HG1      HA2      0.900000E-01   1.00800           0
       409 PROA     25       GLN      HG2      HA2      0.900000E-01   1.00800           0
       410 PROA     25       GLN      CD       CC       0.550000       12.0110           0
       411 PROA     25       GLN      OE1      O       -0.550000       15.9994           0
       412 PROA     25       GLN      NE2      NH2     -0.620000       14.0070           0
       413 PROA     25       GLN      HE21     H        0.320000       1.00800           0
       414 PROA     25       GLN      HE22     H        0.300000       1.00800           0
       415 PROA     25       GLN      C        C        0.510000       12.0110           0
       416 PROA     25       GLN      O        O       -0.510000       15.9994           0
       417 PROA     26       GLN      N        NH1     -0.470000       14.0070           0
       418 PROA     26       GLN      HN       H        0.310000       1.00800           0
       419 PROA     26       GLN      CA       CT1      0.700000E-01   12.0110           0
       420 PROA     26       GLN      HA       HB1      0.900000E-01   1.00800           0
       421 PROA     26       GLN      CB       CT2     -0.180000       12.0110           0
       422 PROA     26       GLN      HB1      HA2      0.900000E-01   1.00800           0
       423 PROA     26       GLN      HB2      HA2      0.900000E-01   1.00800           0
       424 PROA     26       GLN      CG       CT2     -0.180000       12.0110           0
       425 PROA     26       GLN      HG1      HA2      0.900000E-01   1.00800           0
       426 PROA     26       GLN      HG2      HA2      0.900000E-01   1.00800           0
       427 PROA     26       GLN      CD       CC       0.550000       12.0110           0
       428 PROA     26       GLN      OE1      O       -0.550000       15.9994           0
       429 PROA     26       GLN      NE2      NH2     -0.620000       14.0070           0
       430 PROA     26       GLN      HE21     H        0.320000       1.00800           0
       431 PROA     26       GLN      HE22     H        0.300000       1.00800           0
       432 PROA     26       GLN      C        CC       0.550000       12.0110           0
       433 PROA     26       GLN      O        O       -0.550000       15.9994           0
       434 PROA     26       GLN      NT       NH2     -0.620000       14.0070           0
       435 PROA     26       GLN      HT1      H        0.320000       1.00800           0
       436 PROA     26       GLN      HT2      H        0.300000       1.00800           0
       437 P2PROA   1        GLY      N        NH3     -0.300000       14.0070           0
       438 P2PROA   1        GLY      HT1      HC       0.330000       1.00800           0
       439 P2PROA   1        GLY      HT2      HC       0.330000       1.00800           0
       440 P2PROA   1        GLY      HT3      HC       0.330000       1.00800           0
       441 P2PROA   1        GLY      CA       CT2      0.130000       12.0110           0
       442 P2PROA   1        GLY      HA1      HB2      0.900000E-01   1.00800           0
       443 P2PROA   1        GLY      HA2      HB2      0.900000E-01   1.00800           0
       444 P2PROA   1        GLY      C        C        0.510000       12.0110           0
       445 P2PROA   1        GLY      O        O       -0.510000       15.9994           0
       446 P2PROA   2        ILE      N        NH1     -0.470000       14.0070           0
       447 P2PROA   2        ILE      HN       H        0.310000       1.00800           0
       448 P2PROA   2        ILE      CA       CT1      0.700000E-01   12.0110           0
       449 P2PROA   2        ILE      HA       HB1      0.900000E-01   1.00800           0
       450 P2PROA   2        ILE      CB       CT1     -0.900000E-01   12.0110           0
       451 P2PROA   2        ILE      HB       HA1      0.900000E-01   1.00800           0
       452 P2PROA   2        ILE      CG2      CT3     -0.270000       12.0110           0
       453 P2PROA   2        ILE      HG21     HA3      0.900000E-01   1.00800           0
       454 P2PROA   2        ILE      HG22     HA3      0.900000E-01   1.00800           0
       455 P2PROA   2        ILE      HG23     HA3      0.900000E-01   1.00800           0
       456 P2PROA   2        ILE      CG1      CT2     -0.180000       12.0110           0
       457 P2PROA   2        ILE      HG11     HA2      0.900000E-01   1.00800           0
       458 P2PROA   2        ILE      HG12     HA2      0.900000E-01   1.00800           0
       459 P2PROA   2        ILE      CD       CT3     -0.270000       12.0110           0
       460 P2PROA   2        ILE      HD1      HA3      0.900000E-01   1.00800           0
       461 P2PROA   2        ILE      HD2      HA3      0.900000E-01   1.00800           0
       462 P2PROA   2        ILE      HD3      HA3      0.900000E-01   1.00800           0
       463 P2PROA   2        ILE      C        C        0.510000       12.0110           0
       464 P2PROA   2        ILE      O        O       -0.510000       15.9994           0
       465 P2PROA   3        GLY      N        NH1     -0.470000       14.0070           0
       466 P2PROA   3        GLY      HN       H        0.310000       1.00800           0
       467 P2PROA   3        GLY      CA       CT2     -0.200000E-01   12.0110           0
       468 P2PROA   3        GLY      HA1      HB2      0.900000E-01   1.00800           0
       469 P2PROA   3        GLY      HA2      HB2      0.900000E-01   1.00800           0
       470 P2PROA   3        GLY      C        C        0.510000       12.0110           0
       471 P2PROA   3        GLY      O        O       -0.510000       15.9994           0
       472 P2PROA   4        ALA      N        NH1     -0.470000       14.0070           0
       473 P2PROA   4        ALA      HN       H        0.310000       1.00800           0
       474 P2PROA   4        ALA      CA       CT1      0.700000E-01   12.0110           0
       475 P2PROA   4        ALA      HA       HB1      0.900000E-01   1.00800           0
       476 P2PROA   4        ALA      CB       CT3     -0.270000       12.0110           0
       477 P2PROA   4        ALA      HB1      HA3      0.900000E-01   1.00800           0
       478 P2PROA   4        ALA      HB2      HA3      0.900000E-01   1.00800           0
       479 P2PROA   4        ALA      HB3      HA3      0.900000E-01   1.00800           0
       480 P2PROA   4        ALA      C        C        0.510000       12.0110           0
       481 P2PROA   4        ALA      O        O       -0.510000       15.9994           0
       482 P2PROA   5        VAL      N        NH1     -0.470000       14.0070           0
       483 P2PROA   5        VAL      HN       H        0.310000       1.00800           0
       484 P2PROA   5        VAL      CA       CT1      0.700000E-01   12.0110           0
       485 P2PROA   5        VAL      HA       HB1      0.900000E-01   1.00800           0
       486 P2PROA   5        VAL      CB       CT1     -0.900000E-01   12.0110           0
       487 P2PROA   5        VAL      HB       HA1      0.900000E-01   1.00800           0
       488 P2PROA   5        VAL      CG1      CT3     -0.270000       12.0110           0
       489 P2PROA   5        VAL      HG11     HA3      0.900000E-01   1.00800           0
       490 P2PROA   5        VAL      HG12     HA3      0.900000E-01   1.00800           0
       491 P2PROA   5        VAL      HG13     HA3      0.900000E-01   1.00800           0
       492 P2PROA   5        VAL      CG2      CT3     -0.270000       12.0110           0
       493 P2PROA   5        VAL      HG21     HA3      0.900000E-01   1.00800           0
       494 P2PROA   5        VAL      HG22     HA3      0.900000E-01   1.00800           0
       495 P2PROA   5        VAL      HG23     HA3      0.900000E-01   1.00800           0
       496 P2PROA   5        VAL      C        C        0.510000       12.0110           0
       497 P2PROA   5        VAL      O        O       -0.510000       15.9994           0
       498 P2PROA   6        LEU      N        NH1     -0.470000       14.0070           0
       499 P2PROA   6        LEU      HN       H        0.310000       1.00800           0
       500 P2PROA   6        LEU      CA       CT1      0.700000E-01   12.0110           0
       501 P2PROA   6        LEU      HA       HB1      0.900000E-01   1.00800           0
       502 P2PROA   6        LEU      CB       CT2     -0.180000       12.0110           0
       503 P2PROA   6        LEU      HB1      HA2      0.900000E-01   1.00800           0
       504 P2PROA   6        LEU      HB2      HA2      0.900000E-01   1.00800           0
       505 P2PROA   6        LEU      CG       CT1     -0.900000E-01   12.0110           0
       506 P2PROA   6        LEU      HG       HA1      0.900000E-01   1.00800           0
       507 P2PROA   6        LEU      CD1      CT3     -0.270000       12.0110           0
       508 P2PROA   6        LEU      HD11     HA3      0.900000E-01   1.00800           0
       509 P2PROA   6        LEU      HD12     HA3      0.900000E-01   1.00800           0
       510 P2PROA   6        LEU      HD13     HA3      0.900000E-01   1.00800           0
       511 P2PROA   6        LEU      CD2      CT3     -0.270000       12.0110           0
       512 P2PROA   6        LEU      HD21     HA3      0.900000E-01   1.00800           0
       513 P2PROA   6        LEU      HD22     HA3      0.900000E-01   1.00800           0
       514 P2PROA   6        LEU      HD23     HA3      0.900000E-01   1.00800           0
       515 P2PROA   6        LEU      C        C        0.510000       12.0110           0
       516 P2PROA   6        LEU      O        O       -0.510000       15.9994           0
       517 P2PROA   7        LYS      N        NH1     -0.470000       14.0070           0
       518 P2PROA   7        LYS      HN       H        0.310000       1.00800           0
       519 P2PROA   7        LYS      CA       CT1      0.700000E-01   12.0110           0
       520 P2PROA   7        LYS      HA       HB1      0.900000E-01   1.00800           0
       521 P2PROA   7        LYS      CB       CT2     -0.180000       12.0110           0
       522 P2PROA   7        LYS      HB1      HA2      0.900000E-01   1.00800           0
       523 P2PROA   7        LYS      HB2      HA2      0.900000E-01   1.00800           0
       524 P2PROA   7        LYS      CG       CT2     -0.180000       12.0110           0
       525 P2PROA   7        LYS      HG1      HA2      0.900000E-01   1.00800           0
       526 P2PROA   7        LYS      HG2      HA2      0.900000E-01   1.00800           0
       527 P2PROA   7        LYS      CD       CT2     -0.180000       12.0110           0
       528 P2PROA   7        LYS      HD1      HA2      0.900000E-01   1.00800           0
       529 P2PROA   7        LYS      HD2      HA2      0.900000E-01   1.00800           0
       530 P2PROA   7        LYS      CE       CT2      0.210000       12.0110           0
       531 P2PROA   7        LYS      HE1      HA2      0.500000E-01   1.00800           0
       532 P2PROA   7        LYS      HE2      HA2      0.500000E-01   1.00800           0
       533 P2PROA   7        LYS      NZ       NH3     -0.300000       14.0070           0
       534 P2PROA   7        LYS      HZ1      HC       0.330000       1.00800           0
       535 P2PROA   7        LYS      HZ2      HC       0.330000       1.00800           0
       536 P2PROA   7        LYS      HZ3      HC       0.330000       1.00800           0
       537 P2PROA   7        LYS      C        C        0.510000       12.0110           0
       538 P2PROA   7        LYS      O        O       -0.510000       15.9994           0
       539 P2PROA   8        VAL      N        NH1     -0.470000       14.0070           0
       540 P2PROA   8        VAL      HN       H        0.310000       1.00800           0
       541 P2PROA   8        VAL      CA       CT1      0.700000E-01   12.0110           0
       542 P2PROA   8        VAL      HA       HB1      0.900000E-01   1.00800           0
       543 P2PROA   8        VAL      CB       CT1     -0.900000E-01   12.0110           0
       544 P2PROA   8        VAL      HB       HA1      0.900000E-01   1.00800           0
       545 P2PROA   8        VAL      CG1      CT3     -0.270000       12.0110           0
       546 P2PROA   8        VAL      HG11     HA3      0.900000E-01   1.00800           0
       547 P2PROA   8        VAL      HG12     HA3      0.900000E-01   1.00800           0
       548 P2PROA   8        VAL      HG13     HA3      0.900000E-01   1.00800           0
       549 P2PROA   8        VAL      CG2      CT3     -0.270000       12.0110           0
       550 P2PROA   8        VAL      HG21     HA3      0.900000E-01   1.00800           0
       551 P2PROA   8        VAL      HG22     HA3      0.900000E-01   1.00800           0
       552 P2PROA   8        VAL      HG23     HA3      0.900000E-01   1.00800           0
       553 P2PROA   8        VAL      C        C        0.510000       12.0110           0
       554 P2PROA   8        VAL      O        O       -0.510000       15.9994           0
       555 P2PROA   9        LEU      N        NH1     -0.470000       14.0070           0
       556 P2PROA   9        LEU      HN       H        0.310000       1.00800           0
       557 P2PROA   9        LEU      CA       CT1      0.700000E-01   12.0110           0
       558 P2PROA   9        LEU      HA       HB1      0.900000E-01   1.00800           0
       559 P2PROA   9        LEU      CB       CT2     -0.180000       12.0110           0
       560 P2PROA   9        LEU      HB1      HA2      0.900000E-01   1.00800           0
       561 P2PROA   9        LEU      HB2      HA2      0.900000E-01   1.00800           0
       562 P2PROA   9        LEU      CG       CT1     -0.900000E-01   12.0110           0
       563 P2PROA   9        LEU      HG       HA1      0.900000E-01   1.00800           0
       564 P2PROA   9        LEU      CD1      CT3     -0.270000       12.0110           0
       565 P2PROA   9        LEU      HD11     HA3      0.900000E-01   1.00800           0
       566 P2PROA   9        LEU      HD12     HA3      0.900000E-01   1.00800           0
       567 P2PROA   9        LEU      HD13     HA3      0.900000E-01   1.00800           0
       568 P2PROA   9        LEU      CD2      CT3     -0.270000       12.0110           0
       569 P2PROA   9        LEU      HD21     HA3      0.900000E-01   1.00800           0
       570 P2PROA   9        LEU      HD22     HA3      0.900000E-01   1.00800           0
       571 P2PROA   9        LEU      HD23     HA3      0.900000E-01   1.00800           0
       572 P2PROA   9        LEU      C        C        0.510000       12.0110           0
       573 P2PROA   9        LEU      O        O       -0.510000       15.9994           0
       574 P2PROA   10       THR      N        NH1     -0.470000       14.0070           0
       575 P2PROA   10       THR      HN       H        0.310000       1.00800           0
       576 P2PROA   10       THR      CA       CT1      0.700000E-01   12.0110           0
       577 P2PROA   10       THR      HA       HB1      0.900000E-01   1.00800           0
       578 P2PROA   10       THR      CB       CT1      0.140000       12.0110           0
       579 P2PROA   10       THR      HB       HA1      0.900000E-01   1.00800           0
       580 P2PROA   10       THR      OG1      OH1     -0.660000       15.9994           0
       581 P2PROA   10       THR      HG1      H        0.430000       1.00800           0
       582 P2PROA   10       THR      CG2      CT3     -0.270000       12.0110           0
       583 P2PROA   10       THR      HG21     HA3      0.900000E-01   1.00800           0
       584 P2PROA   10       THR      HG22     HA3      0.900000E-01   1.00800           0
       585 P2PROA   10       THR      HG23     HA3      0.900000E-01   1.00800           0
       586 P2PROA   10       THR      C        C        0.510000       12.0110           0
       587 P2PROA   10       THR      O        O       -0.510000       15.9994           0
       588 P2PROA   11       THR      N        NH1     -0.470000       14.0070           0
       589 P2PROA   11       THR      HN       H        0.310000       1.00800           0
       590 P2PROA   11       THR      CA       CT1      0.700000E-01   12.0110           0
       591 P2PROA   11       THR      HA       HB1      0.900000E-01   1.00800           0
       592 P2PROA   11       THR      CB       CT1      0.140000       12.0110           0
       593 P2PROA   11       THR      HB       HA1      0.900000E-01   1.00800           0
       594 P2PROA   11       THR      OG1      OH1     -0.660000       15.9994           0
       595 P2PROA   11       THR      HG1      H        0.430000       1.00800           0
       596 P2PROA   11       THR      CG2      CT3     -0.270000       12.0110           0
       597 P2PROA   11       THR      HG21     HA3      0.900000E-01   1.00800           0
       598 P2PROA   11       THR      HG22     HA3      0.900000E-01   1.00800           0
       599 P2PROA   11       THR      HG23     HA3      0.900000E-01   1.00800           0
       600 P2PROA   11       THR      C        C        0.510000       12.0110           0
       601 P2PROA   11       THR      O        O       -0.510000       15.9994           0
       602 P2PROA   12       GLY      N        NH1     -0.470000       14.0070           0
       603 P2PROA   12       GLY      HN       H        0.310000       1.00800           0
       604 P2PROA   12       GLY      CA       CT2     -0.200000E-01   12.0110           0
       605 P2PROA   12       GLY      HA1      HB2      0.900000E-01   1.00800           0
       606 P2PROA   12       GLY      HA2      HB2      0.900000E-01   1.00800           0
       607 P2PROA   12       GLY      C        C        0.510000       12.0110           0
       608 P2PROA   12       GLY      O        O       -0.510000       15.9994           0
       609 P2PROA   13       LEU      N        NH1     -0.470000       14.0070           0
       610 P2PROA   13       LEU      HN       H        0.310000       1.00800           0
       611 P2PROA   13       LEU      CA       CT1      0.700000E-01   12.0110           0
       612 P2PROA   13       LEU      HA       HB1      0.900000E-01   1.00800           0
       613 P2PROA   13       LEU      CB       CT2     -0.180000       12.0110           0
       614 P2PROA   13       LEU      HB1      HA2      0.900000E-01   1.00800           0
       615 P2PROA   13       LEU      HB2      HA2      0.900000E-01   1.00800           0
       616 P2PROA   13       LEU      CG       CT1     -0.900000E-01   12.0110           0
       617 P2PROA   13       LEU      HG       HA1      0.900000E-01   1.00800           0
       618 P2PROA   13       LEU      CD1      CT3     -0.270000       12.0110           0
       619 P2PROA   13       LEU      HD11     HA3      0.900000E-01   1.00800           0
       620 P2PROA   13       LEU      HD12     HA3      0.900000E-01   1.00800           0
       621 P2PROA   13       LEU      HD13     HA3      0.900000E-01   1.00800           0
       622 P2PROA   13       LEU      CD2      CT3     -0.270000       12.0110           0
       623 P2PROA   13       LEU      HD21     HA3      0.900000E-01   1.00800           0
       624 P2PROA   13       LEU      HD22     HA3      0.900000E-01   1.00800           0
       625 P2PROA   13       LEU      HD23     HA3      0.900000E-01   1.00800           0
       626 P2PROA   13       LEU      C        C        0.510000       12.0110           0
       627 P2PROA   13       LEU      O        O       -0.510000       15.9994           0
       628 P2PROA   14       PRO      N        N       -0.290000       14.0070           0
       629 P2PROA   14       PRO      CD       CP3       0.00000       12.0110           0
       630 P2PROA   14       PRO      HD1      HA2      0.900000E-01   1.00800           0
       631 P2PROA   14       PRO      HD2      HA2      0.900000E-01   1.00800           0
       632 P2PROA   14       PRO      CA       CP1      0.200000E-01   12.0110           0
       633 P2PROA   14       PRO      HA       HB1      0.900000E-01   1.00800           0
       634 P2PROA   14       PRO      CB       CP2     -0.180000       12.0110           0
       635 P2PROA   14       PRO      HB1      HA2      0.900000E-01   1.00800           0
       636 P2PROA   14       PRO      HB2      HA2      0.900000E-01   1.00800           0
       637 P2PROA   14       PRO      CG       CP2     -0.180000       12.0110           0
       638 P2PROA   14       PRO      HG1      HA2      0.900000E-01   1.00800           0
       639 P2PROA   14       PRO      HG2      HA2      0.900000E-01   1.00800           0
       640 P2PROA   14       PRO      C        C        0.510000       12.0110           0
       641 P2PROA   14       PRO      O        O       -0.510000       15.9994           0
       642 P2PROA   15       ALA      N        NH1     -0.470000       14.0070           0
       643 P2PROA   15       ALA      HN       H        0.310000       1.00800           0
       644 P2PROA   15       ALA      CA       CT1      0.700000E-01   12.0110           0
       645 P2PROA   15       ALA      HA       HB1      0.900000E-01   1.00800           0
       646 P2PROA   15       ALA      CB       CT3     -0.270000       12.0110           0
       647 P2PROA   15       ALA      HB1      HA3      0.900000E-01   1.00800           0
       648 P2PROA   15       ALA      HB2      HA3      0.900000E-01   1.00800           0
       649 P2PROA   15       ALA      HB3      HA3      0.900000E-01   1.00800           0
       650 P2PROA   15       ALA      C        C        0.510000       12.0110           0
       651 P2PROA   15       ALA      O        O       -0.510000       15.9994           0
       652 P2PROA   16       LEU      N        NH1     -0.470000       14.0070           0
       653 P2PROA   16       LEU      HN       H        0.310000       1.00800           0
       654 P2PROA   16       LEU      CA       CT1      0.700000E-01   12.0110           0
       655 P2PROA   16       LEU      HA       HB1      0.900000E-01   1.00800           0
       656 P2PROA   16       LEU      CB       CT2     -0.180000       12.0110           0
       657 P2PROA   16       LEU      HB1      HA2      0.900000E-01   1.00800           0
       658 P2PROA   16       LEU      HB2      HA2      0.900000E-01   1.00800           0
       659 P2PROA   16       LEU      CG       CT1     -0.900000E-01   12.0110           0
       660 P2PROA   16       LEU      HG       HA1      0.900000E-01   1.00800           0
       661 P2PROA   16       LEU      CD1      CT3     -0.270000       12.0110           0
       662 P2PROA   16       LEU      HD11     HA3      0.900000E-01   1.00800           0
       663 P2PROA   16       LEU      HD12     HA3      0.900000E-01   1.00800           0
       664 P2PROA   16       LEU      HD13     HA3      0.900000E-01   1.00800           0
       665 P2PROA   16       LEU      CD2      CT3     -0.270000       12.0110           0
       666 P2PROA   16       LEU      HD21     HA3      0.900000E-01   1.00800           0
       667 P2PROA   16       LEU      HD22     HA3      0.900000E-01   1.00800           0
       668 P2PROA   16       LEU      HD23     HA3      0.900000E-01   1.00800           0
       669 P2PROA   16       LEU      C        C        0.510000       12.0110           0
       670 P2PROA   16       LEU      O        O       -0.510000       15.9994           0
       671 P2PROA   17       ILE      N        NH1     -0.470000       14.0070           0
       672 P2PROA   17       ILE      HN       H        0.310000       1.00800           0
       673 P2PROA   17       ILE      CA       CT1      0.700000E-01   12.0110           0
       674 P2PROA   17       ILE      HA       HB1      0.900000E-01   1.00800           0
       675 P2PROA   17       ILE      CB       CT1     -0.900000E-01   12.0110           0
       676 P2PROA   17       ILE      HB       HA1      0.900000E-01   1.00800           0
       677 P2PROA   17       ILE      CG2      CT3     -0.270000       12.0110           0
       678 P2PROA   17       ILE      HG21     HA3      0.900000E-01   1.00800           0
       679 P2PROA   17       ILE      HG22     HA3      0.900000E-01   1.00800           0
       680 P2PROA   17       ILE      HG23     HA3      0.900000E-01   1.00800           0
       681 P2PROA   17       ILE      CG1      CT2     -0.180000       12.0110           0
       682 P2PROA   17       ILE      HG11     HA2      0.900000E-01   1.00800           0
       683 P2PROA   17       ILE      HG12     HA2      0.900000E-01   1.00800           0
       684 P2PROA   17       ILE      CD       CT3     -0.270000       12.0110           0
       685 P2PROA   17       ILE      HD1      HA3      0.900000E-01   1.00800           0
       686 P2PROA   17       ILE      HD2      HA3      0.900000E-01   1.00800           0
       687 P2PROA   17       ILE      HD3      HA3      0.900000E-01   1.00800           0
       688 P2PROA   17       ILE      C        C        0.510000       12.0110           0
       689 P2PROA   17       ILE      O        O       -0.510000       15.9994           0
       690 P2PROA   18       SER      N        NH1     -0.470000       14.0070           0
       691 P2PROA   18       SER      HN       H        0.310000       1.00800           0
       692 P2PROA   18       SER      CA       CT1      0.700000E-01   12.0110           0
       693 P2PROA   18       SER      HA       HB1      0.900000E-01   1.00800           0
       694 P2PROA   18       SER      CB       CT2      0.500000E-01   12.0110           0
       695 P2PROA   18       SER      HB1      HA2      0.900000E-01   1.00800           0
       696 P2PROA   18       SER      HB2      HA2      0.900000E-01   1.00800           0
       697 P2PROA   18       SER      OG       OH1     -0.660000       15.9994           0
       698 P2PROA   18       SER      HG1      H        0.430000       1.00800           0
       699 P2PROA   18       SER      C        C        0.510000       12.0110           0
       700 P2PROA   18       SER      O        O       -0.510000       15.9994           0
       701 P2PROA   19       TRP      N        NH1     -0.470000       14.0070           0
       702 P2PROA   19       TRP      HN       H        0.310000       1.00800           0
       703 P2PROA   19       TRP      CA       CT1      0.700000E-01   12.0110           0
       704 P2PROA   19       TRP      HA       HB1      0.900000E-01   1.00800           0
       705 P2PROA   19       TRP      CB       CT2     -0.180000       12.0110           0
       706 P2PROA   19       TRP      HB1      HA2      0.900000E-01   1.00800           0
       707 P2PROA   19       TRP      HB2      HA2      0.900000E-01   1.00800           0
       708 P2PROA   19       TRP      CG       CY      -0.300000E-01   12.0110           0
       709 P2PROA   19       TRP      CD1      CA      -0.150000       12.0110           0
       710 P2PROA   19       TRP      HD1      HP       0.220000       1.00800           0
       711 P2PROA   19       TRP      NE1      NY      -0.510000       14.0070           0
       712 P2PROA   19       TRP      HE1      H        0.370000       1.00800           0
       713 P2PROA   19       TRP      CE2      CPT      0.240000       12.0110           0
       714 P2PROA   19       TRP      CD2      CPT      0.110000       12.0110           0
       715 P2PROA   19       TRP      CE3      CAI     -0.250000       12.0110           0
       716 P2PROA   19       TRP      HE3      HP       0.170000       1.00800           0
       717 P2PROA   19       TRP      CZ3      CA      -0.200000       12.0110           0
       718 P2PROA   19       TRP      HZ3      HP       0.140000       1.00800           0
       719 P2PROA   19       TRP      CZ2      CAI     -0.270000       12.0110           0
       720 P2PROA   19       TRP      HZ2      HP       0.160000       1.00800           0
       721 P2PROA   19       TRP      CH2      CA      -0.140000       12.0110           0
       722 P2PROA   19       TRP      HH2      HP       0.140000       1.00800           0
       723 P2PROA   19       TRP      C        C        0.510000       12.0110           0
       724 P2PROA   19       TRP      O        O       -0.510000       15.9994           0
       725 P2PROA   20       ILE      N        NH1     -0.470000       14.0070           0
       726 P2PROA   20       ILE      HN       H        0.310000       1.00800           0
       727 P2PROA   20       ILE      CA       CT1      0.700000E-01   12.0110           0
       728 P2PROA   20       ILE      HA       HB1      0.900000E-01   1.00800           0
       729 P2PROA   20       ILE      CB       CT1     -0.900000E-01   12.0110           0
       730 P2PROA   20       ILE      HB       HA1      0.900000E-01   1.00800           0
       731 P2PROA   20       ILE      CG2      CT3     -0.270000       12.0110           0
       732 P2PROA   20       ILE      HG21     HA3      0.900000E-01   1.00800           0
       733 P2PROA   20       ILE      HG22     HA3      0.900000E-01   1.00800           0
       734 P2PROA   20       ILE      HG23     HA3      0.900000E-01   1.00800           0
       735 P2PROA   20       ILE      CG1      CT2     -0.180000       12.0110           0
       736 P2PROA   20       ILE      HG11     HA2      0.900000E-01   1.00800           0
       737 P2PROA   20       ILE      HG12     HA2      0.900000E-01   1.00800           0
       738 P2PROA   20       ILE      CD       CT3     -0.270000       12.0110           0
       739 P2PROA   20       ILE      HD1      HA3      0.900000E-01   1.00800           0
       740 P2PROA   20       ILE      HD2      HA3      0.900000E-01   1.00800           0
       741 P2PROA   20       ILE      HD3      HA3      0.900000E-01   1.00800           0
       742 P2PROA   20       ILE      C        C        0.510000       12.0110           0
       743 P2PROA   20       ILE      O        O       -0.510000       15.9994           0
       744 P2PROA   21       LYS      N        NH1     -0.470000       14.0070           0
       745 P2PROA   21       LYS      HN       H        0.310000       1.00800           0
       746 P2PROA   21       LYS      CA       CT1      0.700000E-01   12.0110           0
       747 P2PROA   21       LYS      HA       HB1      0.900000E-01   1.00800           0
       748 P2PROA   21       LYS      CB       CT2     -0.180000       12.0110           0
       749 P2PROA   21       LYS      HB1      HA2      0.900000E-01   1.00800           0
       750 P2PROA   21       LYS      HB2      HA2      0.900000E-01   1.00800           0
       751 P2PROA   21       LYS      CG       CT2     -0.180000       12.0110           0
       752 P2PROA   21       LYS      HG1      HA2      0.900000E-01   1.00800           0
       753 P2PROA   21       LYS      HG2      HA2      0.900000E-01   1.00800           0
       754 P2PROA   21       LYS      CD       CT2     -0.180000       12.0110           0
       755 P2PROA   21       LYS      HD1      HA2      0.900000E-01   1.00800           0
       756 P2PROA   21       LYS      HD2      HA2      0.900000E-01   1.00800           0
       757 P2PROA   21       LYS      CE       CT2      0.210000       12.0110           0
       758 P2PROA   21       LYS      HE1      HA2      0.500000E-01   1.00800           0
       759 P2PROA   21       LYS      HE2      HA2      0.500000E-01   1.00800           0
       760 P2PROA   21       LYS      NZ       NH3     -0.300000       14.0070           0
       761 P2PROA   21       LYS      HZ1      HC       0.330000       1.00800           0
       762 P2PROA   21       LYS      HZ2      HC       0.330000       1.00800           0
       763 P2PROA   21       LYS      HZ3      HC       0.330000       1.00800           0
       764 P2PROA   21       LYS      C        C        0.510000       12.0110           0
       765 P2PROA   21       LYS      O        O       -0.510000       15.9994           0
       766 P2PROA   22       ARG      N        NH1     -0.470000       14.0070           0
       767 P2PROA   22       ARG      HN       H        0.310000       1.00800           0
       768 P2PROA   22       ARG      CA       CT1      0.700000E-01   12.0110           0
       769 P2PROA   22       ARG      HA       HB1      0.900000E-01   1.00800           0
       770 P2PROA   22       ARG      CB       CT2     -0.180000       12.0110           0
       771 P2PROA   22       ARG      HB1      HA2      0.900000E-01   1.00800           0
       772 P2PROA   22       ARG      HB2      HA2      0.900000E-01   1.00800           0
       773 P2PROA   22       ARG      CG       CT2     -0.180000       12.0110           0
       774 P2PROA   22       ARG      HG1      HA2      0.900000E-01   1.00800           0
       775 P2PROA   22       ARG      HG2      HA2      0.900000E-01   1.00800           0
       776 P2PROA   22       ARG      CD       CT2      0.200000       12.0110           0
       777 P2PROA   22       ARG      HD1      HA2      0.900000E-01   1.00800           0
       778 P2PROA   22       ARG      HD2      HA2      0.900000E-01   1.00800           0
       779 P2PROA   22       ARG      NE       NC2     -0.700000       14.0070           0
       780 P2PROA   22       ARG      HE       HC       0.440000       1.00800           0
       781 P2PROA   22       ARG      CZ       C        0.640000       12.0110           0
       782 P2PROA   22       ARG      NH1      NC2     -0.800000       14.0070           0
       783 P2PROA   22       ARG      HH11     HC       0.460000       1.00800           0
       784 P2PROA   22       ARG      HH12     HC       0.460000       1.00800           0
       785 P2PROA   22       ARG      NH2      NC2     -0.800000       14.0070           0
       786 P2PROA   22       ARG      HH21     HC       0.460000       1.00800           0
       787 P2PROA   22       ARG      HH22     HC       0.460000       1.00800           0
       788 P2PROA   22       ARG      C        C        0.510000       12.0110           0
       789 P2PROA   22       ARG      O        O       -0.510000       15.9994           0
       790 P2PROA   23       LYS      N        NH1     -0.470000       14.0070           0
       791 P2PROA   23       LYS      HN       H        0.310000       1.00800           0
       792 P2PROA   23       LYS      CA       CT1      0.700000E-01   12.0110           0
       793 P2PROA   23       LYS      HA       HB1      0.900000E-01   1.00800           0
       794 P2PROA   23       LYS      CB       CT2     -0.180000       12.0110           0
       795 P2PROA   23       LYS      HB1      HA2      0.900000E-01   1.00800           0
       796 P2PROA   23       LYS      HB2      HA2      0.900000E-01   1.00800           0
       797 P2PROA   23       LYS      CG       CT2     -0.180000       12.0110           0
       798 P2PROA   23       LYS      HG1      HA2      0.900000E-01   1.00800           0
       799 P2PROA   23       LYS      HG2      HA2      0.900000E-01   1.00800           0
       800 P2PROA   23       LYS      CD       CT2     -0.180000       12.0110           0
       801 P2PROA   23       LYS      HD1      HA2      0.900000E-01   1.00800           0
       802 P2PROA   23       LYS      HD2      HA2      0.900000E-01   1.00800           0
       803 P2PROA   23       LYS      CE       CT2      0.210000       12.0110           0
       804 P2PROA   23       LYS      HE1      HA2      0.500000E-01   1.00800           0
       805 P2PROA   23       LYS      HE2      HA2      0.500000E-01   1.00800           0
       806 P2PROA   23       LYS      NZ       NH3     -0.300000       14.0070           0
       807 P2PROA   23       LYS      HZ1      HC       0.330000       1.00800           0
       808 P2PROA   23       LYS      HZ2      HC       0.330000       1.00800           0
       809 P2PROA   23       LYS      HZ3      HC       0.330000       1.00800           0
       810 P2PROA   23       LYS      C        C        0.510000       12.0110           0
       811 P2PROA   23       LYS      O        O       -0.510000       15.9994           0
       812 P2PROA   24       ARG      N        NH1     -0.470000       14.0070           0
       813 P2PROA   24       ARG      HN       H        0.310000       1.00800           0
       814 P2PROA   24       ARG      CA       CT1      0.700000E-01   12.0110           0
       815 P2PROA   24       ARG      HA       HB1      0.900000E-01   1.00800           0
       816 P2PROA   24       ARG      CB       CT2     -0.180000       12.0110           0
       817 P2PROA   24       ARG      HB1      HA2      0.900000E-01   1.00800           0
       818 P2PROA   24       ARG      HB2      HA2      0.900000E-01   1.00800           0
       819 P2PROA   24       ARG      CG       CT2     -0.180000       12.0110           0
       820 P2PROA   24       ARG      HG1      HA2      0.900000E-01   1.00800           0
       821 P2PROA   24       ARG      HG2      HA2      0.900000E-01   1.00800           0
       822 P2PROA   24       ARG      CD       CT2      0.200000       12.0110           0
       823 P2PROA   24       ARG      HD1      HA2      0.900000E-01   1.00800           0
       824 P2PROA   24       ARG      HD2      HA2      0.900000E-01   1.00800           0
       825 P2PROA   24       ARG      NE       NC2     -0.700000       14.0070           0
       826 P2PROA   24       ARG      HE       HC       0.440000       1.00800           0
       827 P2PROA   24       ARG      CZ       C        0.640000       12.0110           0
       828 P2PROA   24       ARG      NH1      NC2     -0.800000       14.0070           0
       829 P2PROA   24       ARG      HH11     HC       0.460000       1.00800           0
       830 P2PROA   24       ARG      HH12     HC       0.460000       1.00800           0
       831 P2PROA   24       ARG      NH2      NC2     -0.800000       14.0070           0
       832 P2PROA   24       ARG      HH21     HC       0.460000       1.00800           0
       833 P2PROA   24       ARG      HH22     HC       0.460000       1.00800           0
       834 P2PROA   24       ARG      C        C        0.510000       12.0110           0
       835 P2PROA   24       ARG      O        O       -0.510000       15.9994           0
       836 P2PROA   25       GLN      N        NH1     -0.470000       14.0070           0
       837 P2PROA   25       GLN      HN       H        0.310000       1.00800           0
       838 P2PROA   25       GLN      CA       CT1      0.700000E-01   12.0110           0
       839 P2PROA   25       GLN      HA       HB1      0.900000E-01   1.00800           0
       840 P2PROA   25       GLN      CB       CT2     -0.180000       12.0110           0
       841 P2PROA   25       GLN      HB1      HA2      0.900000E-01   1.00800           0
       842 P2PROA   25       GLN      HB2      HA2      0.900000E-01   1.00800           0
       843 P2PROA   25       GLN      CG       CT2     -0.180000       12.0110           0
       844 P2PROA   25       GLN      HG1      HA2      0.900000E-01   1.00800           0
       845 P2PROA   25       GLN      HG2      HA2      0.900000E-01   1.00800           0
       846 P2PROA   25       GLN      CD       CC       0.550000       12.0110           0
       847 P2PROA   25       GLN      OE1      O       -0.550000       15.9994           0
       848 P2PROA   25       GLN      NE2      NH2     -0.620000       14.0070           0
       849 P2PROA   25       GLN      HE21     H        0.320000       1.00800           0
       850 P2PROA   25       GLN      HE22     H        0.300000       1.00800           0
       851 P2PROA   25       GLN      C        C        0.510000       12.0110           0
       852 P2PROA   25       GLN      O        O       -0.510000       15.9994           0
       853 P2PROA   26       GLN      N        NH1     -0.470000       14.0070           0
       854 P2PROA   26       GLN      HN       H        0.310000       1.00800           0
       855 P2PROA   26       GLN      CA       CT1      0.700000E-01   12.0110           0
       856 P2PROA   26       GLN      HA       HB1      0.900000E-01   1.00800           0
       857 P2PROA   26       GLN      CB       CT2     -0.180000       12.0110           0
       858 P2PROA   26       GLN      HB1      HA2      0.900000E-01   1.00800           0
       859 P2PROA   26       GLN      HB2      HA2      0.900000E-01   1.00800           0
       860 P2PROA   26       GLN      CG       CT2     -0.180000       12.0110           0
       861 P2PROA   26       GLN      HG1      HA2      0.900000E-01   1.00800           0
       862 P2PROA   26       GLN      HG2      HA2      0.900000E-01   1.00800           0
       863 P2PROA   26       GLN      CD       CC       0.550000       12.0110           0
       864 P2PROA   26       GLN      OE1      O       -0.550000       15.9994           0
       865 P2PROA   26       GLN      NE2      NH2     -0.620000       14.0070           0
       866 P2PROA   26       GLN      HE21     H        0.320000       1.00800           0
       867 P2PROA   26       GLN      HE22     H        0.300000       1.00800           0
       868 P2PROA   26       GLN      C        CC       0.550000       12.0110           0
       869 P2PROA   26       GLN      O        O       -0.550000       15.9994           0
       870 P2PROA   26       GLN      NT       NH2     -0.620000       14.0070           0
       871 P2PROA   26       GLN      HT1      H        0.320000       1.00800           0
       872 P2PROA   26       GLN      HT2      H        0.300000       1.00800           0
       873 MEMB     1        POPC     N        NTL     -0.600000       14.0070           0
       874 MEMB     1        POPC     C12      CTL2    -0.100000       12.0110           0
       875 MEMB     1        POPC     H12A     HL       0.250000       1.00800           0
       876 MEMB     1        POPC     H12B     HL       0.250000       1.00800           0
       877 MEMB     1        POPC     C13      CTL5    -0.350000       12.0110           0
       878 MEMB     1        POPC     H13A     HL       0.250000       1.00800           0
       879 MEMB     1        POPC     H13B     HL       0.250000       1.00800           0
       880 MEMB     1        POPC     H13C     HL       0.250000       1.00800           0
       881 MEMB     1        POPC     C14      CTL5    -0.350000       12.0110           0
       882 MEMB     1        POPC     H14A     HL       0.250000       1.00800           0
       883 MEMB     1        POPC     H14B     HL       0.250000       1.00800           0
       884 MEMB     1        POPC     H14C     HL       0.250000       1.00800           0
       885 MEMB     1        POPC     C15      CTL5    -0.350000       12.0110           0
       886 MEMB     1        POPC     H15A     HL       0.250000       1.00800           0
       887 MEMB     1        POPC     H15B     HL       0.250000       1.00800           0
       888 MEMB     1        POPC     H15C     HL       0.250000       1.00800           0
       889 MEMB     1        POPC     C11      CTL2    -0.800000E-01   12.0110           0
       890 MEMB     1        POPC     H11A     HAL2     0.900000E-01   1.00800           0
       891 MEMB     1        POPC     H11B     HAL2     0.900000E-01   1.00800           0
       892 MEMB     1        POPC     P        PL        1.50000       30.9740           0
       893 MEMB     1        POPC     O13      O2L     -0.780000       15.9994           0
       894 MEMB     1        POPC     O14      O2L     -0.780000       15.9994           0
       895 MEMB     1        POPC     O12      OSLP    -0.570000       15.9994           0
       896 MEMB     1        POPC     O11      OSLP    -0.570000       15.9994           0
       897 MEMB     1        POPC     C1       CTL2    -0.800000E-01   12.0110           0
       898 MEMB     1        POPC     HA       HAL2     0.900000E-01   1.00800           0
       899 MEMB     1        POPC     HB       HAL2     0.900000E-01   1.00800           0
       900 MEMB     1        POPC     C2       CTL1     0.170000       12.0110           0
       901 MEMB     1        POPC     HS       HAL1     0.900000E-01   1.00800           0
       902 MEMB     1        POPC     O21      OSL     -0.490000       15.9994           0
       903 MEMB     1        POPC     C21      CL       0.900000       12.0110           0
       904 MEMB     1        POPC     O22      OBL     -0.630000       15.9994           0
       905 MEMB     1        POPC     C22      CTL2    -0.220000       12.0110           0
       906 MEMB     1        POPC     H2R      HAL2     0.900000E-01   1.00800           0
       907 MEMB     1        POPC     H2S      HAL2     0.900000E-01   1.00800           0
       908 MEMB     1        POPC     C3       CTL2     0.800000E-01   12.0110           0
       909 MEMB     1        POPC     HX       HAL2     0.900000E-01   1.00800           0
       910 MEMB     1        POPC     HY       HAL2     0.900000E-01   1.00800           0
       911 MEMB     1        POPC     O31      OSL     -0.490000       15.9994           0
       912 MEMB     1        POPC     C31      CL       0.900000       12.0110           0
       913 MEMB     1        POPC     O32      OBL     -0.630000       15.9994           0
       914 MEMB     1        POPC     C32      CTL2    -0.220000       12.0110           0
       915 MEMB     1        POPC     H2X      HAL2     0.900000E-01   1.00800           0
       916 MEMB     1        POPC     H2Y      HAL2     0.900000E-01   1.00800           0
       917 MEMB     1        POPC     C23      CTL2    -0.180000       12.0110           0
       918 MEMB     1        POPC     H3R      HAL2     0.900000E-01   1.00800           0
       919 MEMB     1        POPC     H3S      HAL2     0.900000E-01   1.00800           0
       920 MEMB     1        POPC     C24      CTL2    -0.180000       12.0110           0
       921 MEMB     1        POPC     H4R      HAL2     0.900000E-01   1.00800           0
       922 MEMB     1        POPC     H4S      HAL2     0.900000E-01   1.00800           0
       923 MEMB     1        POPC     C25      CTL2    -0.180000       12.0110           0
       924 MEMB     1        POPC     H5R      HAL2     0.900000E-01   1.00800           0
       925 MEMB     1        POPC     H5S      HAL2     0.900000E-01   1.00800           0
       926 MEMB     1        POPC     C26      CTL2    -0.180000       12.0110           0
       927 MEMB     1        POPC     H6R      HAL2     0.900000E-01   1.00800           0
       928 MEMB     1        POPC     H6S      HAL2     0.900000E-01   1.00800           0
       929 MEMB     1        POPC     C27      CTL2    -0.180000       12.0110           0
       930 MEMB     1        POPC     H7R      HAL2     0.900000E-01   1.00800           0
       931 MEMB     1        POPC     H7S      HAL2     0.900000E-01   1.00800           0
       932 MEMB     1        POPC     C28      CTL2    -0.180000       12.0110           0
       933 MEMB     1        POPC     H8R      HAL2     0.900000E-01   1.00800           0
       934 MEMB     1        POPC     H8S      HAL2     0.900000E-01   1.00800           0
       935 MEMB     1        POPC     C29      CEL1    -0.150000       12.0110           0
       936 MEMB     1        POPC     H91      HEL1     0.150000       1.00800           0
       937 MEMB     1        POPC     C210     CEL1    -0.150000       12.0110           0
       938 MEMB     1        POPC     H101     HEL1     0.150000       1.00800           0
       939 MEMB     1        POPC     C211     CTL2    -0.180000       12.0110           0
       940 MEMB     1        POPC     H11R     HAL2     0.900000E-01   1.00800           0
       941 MEMB     1        POPC     H11S     HAL2     0.900000E-01   1.00800           0
       942 MEMB     1        POPC     C212     CTL2    -0.180000       12.0110           0
       943 MEMB     1        POPC     H12R     HAL2     0.900000E-01   1.00800           0
       944 MEMB     1        POPC     H12S     HAL2     0.900000E-01   1.00800           0
       945 MEMB     1        POPC     C213     CTL2    -0.180000       12.0110           0
       946 MEMB     1        POPC     H13R     HAL2     0.900000E-01   1.00800           0
       947 MEMB     1        POPC     H13S     HAL2     0.900000E-01   1.00800           0
       948 MEMB     1        POPC     C214     CTL2    -0.180000       12.0110           0
       949 MEMB     1        POPC     H14R     HAL2     0.900000E-01   1.00800           0
       950 MEMB     1        POPC     H14S     HAL2     0.900000E-01   1.00800           0
       951 MEMB     1        POPC     C215     CTL2    -0.180000       12.0110           0
       952 MEMB     1        POPC     H15R     HAL2     0.900000E-01   1.00800           0
       953 MEMB     1        POPC     H15S     HAL2     0.900000E-01   1.00800           0
       954 MEMB     1        POPC     C216     CTL2    -0.180000       12.0110           0
       955 MEMB     1        POPC     H16R     HAL2     0.900000E-01   1.00800           0
       956 MEMB     1        POPC     H16S     HAL2     0.900000E-01   1.00800           0
       957 MEMB     1        POPC     C217     CTL2    -0.180000       12.0110           0
       958 MEMB     1        POPC     H17R     HAL2     0.900000E-01   1.00800           0
       959 MEMB     1        POPC     H17S     HAL2     0.900000E-01   1.00800           0
       960 MEMB     1        POPC     C218     CTL3    -0.270000       12.0110           0
       961 MEMB     1        POPC     H18R     HAL3     0.900000E-01   1.00800           0
       962 MEMB     1        POPC     H18S     HAL3     0.900000E-01   1.00800           0
       963 MEMB     1        POPC     H18T     HAL3     0.900000E-01   1.00800           0
       964 MEMB     1        POPC     C33      CTL2    -0.180000       12.0110           0
       965 MEMB     1        POPC     H3X      HAL2     0.900000E-01   1.00800           0
       966 MEMB     1        POPC     H3Y      HAL2     0.900000E-01   1.00800           0
       967 MEMB     1        POPC     C34      CTL2    -0.180000       12.0110           0
       968 MEMB     1        POPC     H4X      HAL2     0.900000E-01   1.00800           0
       969 MEMB     1        POPC     H4Y      HAL2     0.900000E-01   1.00800           0
       970 MEMB     1        POPC     C35      CTL2    -0.180000       12.0110           0
       971 MEMB     1        POPC     H5X      HAL2     0.900000E-01   1.00800           0
       972 MEMB     1        POPC     H5Y      HAL2     0.900000E-01   1.00800           0
       973 MEMB     1        POPC     C36      CTL2    -0.180000       12.0110           0
       974 MEMB     1        POPC     H6X      HAL2     0.900000E-01   1.00800           0
       975 MEMB     1        POPC     H6Y      HAL2     0.900000E-01   1.00800           0
       976 MEMB     1        POPC     C37      CTL2    -0.180000       12.0110           0
       977 MEMB     1        POPC     H7X      HAL2     0.900000E-01   1.00800           0
       978 MEMB     1        POPC     H7Y      HAL2     0.900000E-01   1.00800           0
       979 MEMB     1        POPC     C38      CTL2    -0.180000       12.0110           0
       980 MEMB     1        POPC     H8X      HAL2     0.900000E-01   1.00800           0
       981 MEMB     1        POPC     H8Y      HAL2     0.900000E-01   1.00800           0
       982 MEMB     1        POPC     C39      CTL2    -0.180000       12.0110           0
       983 MEMB     1        POPC     H9X      HAL2     0.900000E-01   1.00800           0
       984 MEMB     1        POPC     H9Y      HAL2     0.900000E-01   1.00800           0
       985 MEMB     1        POPC     C310     CTL2    -0.180000       12.0110           0
       986 MEMB     1        POPC     H10X     HAL2     0.900000E-01   1.00800           0
       987 MEMB     1        POPC     H10Y     HAL2     0.900000E-01   1.00800           0
       988 MEMB     1        POPC     C311     CTL2    -0.180000       12.0110           0
       989 MEMB     1        POPC     H11X     HAL2     0.900000E-01   1.00800           0
       990 MEMB     1        POPC     H11Y     HAL2     0.900000E-01   1.00800           0
       991 MEMB     1        POPC     C312     CTL2    -0.180000       12.0110           0
       992 MEMB     1        POPC     H12X     HAL2     0.900000E-01   1.00800           0
       993 MEMB     1        POPC     H12Y     HAL2     0.900000E-01   1.00800           0
       994 MEMB     1        POPC     C313     CTL2    -0.180000       12.0110           0
       995 MEMB     1        POPC     H13X     HAL2     0.900000E-01   1.00800           0
       996 MEMB     1        POPC     H13Y     HAL2     0.900000E-01   1.00800           0
       997 MEMB     1        POPC     C314     CTL2    -0.180000       12.0110           0
       998 MEMB     1        POPC     H14X     HAL2     0.900000E-01   1.00800           0
       999 MEMB     1        POPC     H14Y     HAL2     0.900000E-01   1.00800           0
      1000 MEMB     1        POPC     C315     CTL2    -0.180000       12.0110           0
      1001 MEMB     1        POPC     H15X     HAL2     0.900000E-01   1.00800           0
      1002 MEMB     1        POPC     H15Y     HAL2     0.900000E-01   1.00800           0
      1003 MEMB     1        POPC     C316     CTL3    -0.270000       12.0110           0
      1004 MEMB     1        POPC     H16X     HAL3     0.900000E-01   1.00800           0
      1005 MEMB     1        POPC     H16Y     HAL3     0.900000E-01   1.00800           0
      1006 MEMB     1        POPC     H16Z     HAL3     0.900000E-01   1.00800           0
      1007 MEMB     2        POPC     N        NTL     -0.600000       14.0070           0
      1008 MEMB     2        POPC     C12      CTL2    -0.100000       12.0110           0
      1009 MEMB     2        POPC     H12A     HL       0.250000       1.00800           0
      1010 MEMB     2        POPC     H12B     HL       0.250000       1.00800           0
      1011 MEMB     2        POPC     C13      CTL5    -0.350000       12.0110           0
      1012 MEMB     2        POPC     H13A     HL       0.250000       1.00800           0
      1013 MEMB     2        POPC     H13B     HL       0.250000       1.00800           0
      1014 MEMB     2        POPC     H13C     HL       0.250000       1.00800           0
      1015 MEMB     2        POPC     C14      CTL5    -0.350000       12.0110           0
      1016 MEMB     2        POPC     H14A     HL       0.250000       1.00800           0
      1017 MEMB     2        POPC     H14B     HL       0.250000       1.00800           0
      1018 MEMB     2        POPC     H14C     HL       0.250000       1.00800           0
      1019 MEMB     2        POPC     C15      CTL5    -0.350000       12.0110           0
      1020 MEMB     2        POPC     H15A     HL       0.250000       1.00800           0
      1021 MEMB     2        POPC     H15B     HL       0.250000       1.00800           0
      1022 MEMB     2        POPC     H15C     HL       0.250000       1.00800           0
      1023 MEMB     2        POPC     C11      CTL2    -0.800000E-01   12.0110           0
      1024 MEMB     2        POPC     H11A     HAL2     0.900000E-01   1.00800           0
      1025 MEMB     2        POPC     H11B     HAL2     0.900000E-01   1.00800           0
      1026 MEMB     2        POPC     P        PL        1.50000       30.9740           0
      1027 MEMB     2        POPC     O13      O2L     -0.780000       15.9994           0
      1028 MEMB     2        POPC     O14      O2L     -0.780000       15.9994           0
      1029 MEMB     2        POPC     O12      OSLP    -0.570000       15.9994           0
      1030 MEMB     2        POPC     O11      OSLP    -0.570000       15.9994           0
      1031 MEMB     2        POPC     C1       CTL2    -0.800000E-01   12.0110           0
      1032 MEMB     2        POPC     HA       HAL2     0.900000E-01   1.00800           0
      1033 MEMB     2        POPC     HB       HAL2     0.900000E-01   1.00800           0
      1034 MEMB     2        POPC     C2       CTL1     0.170000       12.0110           0
      1035 MEMB     2        POPC     HS       HAL1     0.900000E-01   1.00800           0
      1036 MEMB     2        POPC     O21      OSL     -0.490000       15.9994           0
      1037 MEMB     2        POPC     C21      CL       0.900000       12.0110           0
      1038 MEMB     2        POPC     O22      OBL     -0.630000       15.9994           0
      1039 MEMB     2        POPC     C22      CTL2    -0.220000       12.0110           0
      1040 MEMB     2        POPC     H2R      HAL2     0.900000E-01   1.00800           0
      1041 MEMB     2        POPC     H2S      HAL2     0.900000E-01   1.00800           0
      1042 MEMB     2        POPC     C3       CTL2     0.800000E-01   12.0110           0
      1043 MEMB     2        POPC     HX       HAL2     0.900000E-01   1.00800           0
      1044 MEMB     2        POPC     HY       HAL2     0.900000E-01   1.00800           0
      1045 MEMB     2        POPC     O31      OSL     -0.490000       15.9994           0
      1046 MEMB     2        POPC     C31      CL       0.900000       12.0110           0
      1047 MEMB     2        POPC     O32      OBL     -0.630000       15.9994           0
      1048 MEMB     2        POPC     C32      CTL2    -0.220000       12.0110           0
      1049 MEMB     2        POPC     H2X      HAL2     0.900000E-01   1.00800           0
      1050 MEMB     2        POPC     H2Y      HAL2     0.900000E-01   1.00800           0
      1051 MEMB     2        POPC     C23      CTL2    -0.180000       12.0110           0
      1052 MEMB     2        POPC     H3R      HAL2     0.900000E-01   1.00800           0
      1053 MEMB     2        POPC     H3S      HAL2     0.900000E-01   1.00800           0
      1054 MEMB     2        POPC     C24      CTL2    -0.180000       12.0110           0
      1055 MEMB     2        POPC     H4R      HAL2     0.900000E-01   1.00800           0
      1056 MEMB     2        POPC     H4S      HAL2     0.900000E-01   1.00800           0
      1057 MEMB     2        POPC     C25      CTL2    -0.180000       12.0110           0
      1058 MEMB     2        POPC     H5R      HAL2     0.900000E-01   1.00800           0
      1059 MEMB     2        POPC     H5S      HAL2     0.900000E-01   1.00800           0
      1060 MEMB     2        POPC     C26      CTL2    -0.180000       12.0110           0
      1061 MEMB     2        POPC     H6R      HAL2     0.900000E-01   1.00800           0
      1062 MEMB     2        POPC     H6S      HAL2     0.900000E-01   1.00800           0
      1063 MEMB     2        POPC     C27      CTL2    -0.180000       12.0110           0
      1064 MEMB     2        POPC     H7R      HAL2     0.900000E-01   1.00800           0
      1065 MEMB     2        POPC     H7S      HAL2     0.900000E-01   1.00800           0
      1066 MEMB     2        POPC     C28      CTL2    -0.180000       12.0110           0
      1067 MEMB     2        POPC     H8R      HAL2     0.900000E-01   1.00800           0
      1068 MEMB     2        POPC     H8S      HAL2     0.900000E-01   1.00800           0
      1069 MEMB     2        POPC     C29      CEL1    -0.150000       12.0110           0
      1070 MEMB     2        POPC     H91      HEL1     0.150000       1.00800           0
      1071 MEMB     2        POPC     C210     CEL1    -0.150000       12.0110           0
      1072 MEMB     2        POPC     H101     HEL1     0.150000       1.00800           0
      1073 MEMB     2        POPC     C211     CTL2    -0.180000       12.0110           0
      1074 MEMB     2        POPC     H11R     HAL2     0.900000E-01   1.00800           0
      1075 MEMB     2        POPC     H11S     HAL2     0.900000E-01   1.00800           0
      1076 MEMB     2        POPC     C212     CTL2    -0.180000       12.0110           0
      1077 MEMB     2        POPC     H12R     HAL2     0.900000E-01   1.00800           0
      1078 MEMB     2        POPC     H12S     HAL2     0.900000E-01   1.00800           0
      1079 MEMB     2        POPC     C213     CTL2    -0.180000       12.0110           0
      1080 MEMB     2        POPC     H13R     HAL2     0.900000E-01   1.00800           0
      1081 MEMB     2        POPC     H13S     HAL2     0.900000E-01   1.00800           0
      1082 MEMB     2        POPC     C214     CTL2    -0.180000       12.0110           0
      1083 MEMB     2        POPC     H14R     HAL2     0.900000E-01   1.00800           0
      1084 MEMB     2        POPC     H14S     HAL2     0.900000E-01   1.00800           0
      1085 MEMB     2        POPC     C215     CTL2    -0.180000       12.0110           0
      1086 MEMB     2        POPC     H15R     HAL2     0.900000E-01   1.00800           0
      1087 MEMB     2        POPC     H15S     HAL2     0.900000E-01   1.00800           0
      1088 MEMB     2        POPC     C216     CTL2    -0.180000       12.0110           0
      1089 MEMB     2        POPC     H16R     HAL2     0.900000E-01   1.00800           0
      1090 MEMB     2        POPC     H16S     HAL2     0.900000E-01   1.00800           0
      1091 MEMB     2        POPC     C217     CTL2    -0.180000       12.0110           0
      1092 MEMB     2        POPC     H17R     HAL2     0.900000E-01   1.00800           0
      1093 MEMB     2        POPC     H17S     HAL2     0.900000E-01   1.00800           0
      1094 MEMB     2        POPC     C218     CTL3    -0.270000       12.0110           0
      1095 MEMB     2        POPC     H18R     HAL3     0.900000E-01   1.00800           0
      1096 MEMB     2        POPC     H18S     HAL3     0.900000E-01   1.00800           0
      1097 MEMB     2        POPC     H18T     HAL3     0.900000E-01   1.00800           0
      1098 MEMB     2        POPC     C33      CTL2    -0.180000       12.0110           0
      1099 MEMB     2        POPC     H3X      HAL2     0.900000E-01   1.00800           0
      1100 MEMB     2        POPC     H3Y      HAL2     0.900000E-01   1.00800           0
      1101 MEMB     2        POPC     C34      CTL2    -0.180000       12.0110           0
      1102 MEMB     2        POPC     H4X      HAL2     0.900000E-01   1.00800           0
      1103 MEMB     2        POPC     H4Y      HAL2     0.900000E-01   1.00800           0
      1104 MEMB     2        POPC     C35      CTL2    -0.180000       12.0110           0
      1105 MEMB     2        POPC     H5X      HAL2     0.900000E-01   1.00800           0
      1106 MEMB     2        POPC     H5Y      HAL2     0.900000E-01   1.00800           0
      1107 MEMB     2        POPC     C36      CTL2    -0.180000       12.0110           0
      1108 MEMB     2        POPC     H6X      HAL2     0.900000E-01   1.00800           0
      1109 MEMB     2        POPC     H6Y      HAL2     0.900000E-01   1.00800           0
      1110 MEMB     2        POPC     C37      CTL2    -0.180000       12.0110           0
      1111 MEMB     2        POPC     H7X      HAL2     0.900000E-01   1.00800           0
      1112 MEMB     2        POPC     H7Y      HAL2     0.900000E-01   1.00800           0
      1113 MEMB     2        POPC     C38      CTL2    -0.180000       12.0110           0
      1114 MEMB     2        POPC     H8X      HAL2     0.900000E-01   1.00800           0
      1115 MEMB     2        POPC     H8Y      HAL2     0.900000E-01   1.00800           0
      1116 MEMB     2        POPC     C39      CTL2    -0.180000       12.0110           0
      1117 MEMB     2        POPC     H9X      HAL2     0.900000E-01   1.00800           0
      1118 MEMB     2        POPC     H9Y      HAL2     0.900000E-01   1.00800           0
      1119 MEMB     2        POPC     C310     CTL2    -0.180000       12.0110           0
      1120 MEMB     2        POPC     H10X     HAL2     0.900000E-01   1.00800           0
      1121 MEMB     2        POPC     H10Y     HAL2     0.900000E-01   1.00800           0
      1122 MEMB     2        POPC     C311     CTL2    -0.180000       12.0110           0
      1123 MEMB     2        POPC     H11X     HAL2     0.900000E-01   1.00800           0
      1124 MEMB     2        POPC     H11Y     HAL2     0.900000E-01   1.00800           0
      1125 MEMB     2        POPC     C312     CTL2    -0.180000       12.0110           0
      1126 MEMB     2        POPC     H12X     HAL2     0.900000E-01   1.00800           0
      1127 MEMB     2        POPC     H12Y     HAL2     0.900000E-01   1.00800           0
      1128 MEMB     2        POPC     C313     CTL2    -0.180000       12.0110           0
      1129 MEMB     2        POPC     H13X     HAL2     0.900000E-01   1.00800           0
      1130 MEMB     2        POPC     H13Y     HAL2     0.900000E-01   1.00800           0
      1131 MEMB     2        POPC     C314     CTL2    -0.180000       12.0110           0
      1132 MEMB     2        POPC     H14X     HAL2     0.900000E-01   1.00800           0
      1133 MEMB     2        POPC     H14Y     HAL2     0.900000E-01   1.00800           0
      1134 MEMB     2        POPC     C315     CTL2    -0.180000       12.0110           0
      1135 MEMB     2        POPC     H15X     HAL2     0.900000E-01   1.00800           0
      1136 MEMB     2        POPC     H15Y     HAL2     0.900000E-01   1.00800           0
      1137 MEMB     2        POPC     C316     CTL3    -0.270000       12.0110           0
      1138 MEMB     2        POPC     H16X     HAL3     0.900000E-01   1.00800           0
      1139 MEMB     2        POPC     H16Y     HAL3     0.900000E-01   1.00800           0
      1140 MEMB     2        POPC     H16Z     HAL3     0.900000E-01   1.00800           0
      1141 MEMB     3        POPC     N        NTL     -0.600000       14.0070           0
      1142 MEMB     3        POPC     C12      CTL2    -0.100000       12.0110           0
      1143 MEMB     3        POPC     H12A     HL       0.250000       1.00800           0
      1144 MEMB     3        POPC     H12B     HL       0.250000       1.00800           0
      1145 MEMB     3        POPC     C13      CTL5    -0.350000       12.0110           0
      1146 MEMB     3        POPC     H13A     HL       0.250000       1.00800           0
      1147 MEMB     3        POPC     H13B     HL       0.250000       1.00800           0
      1148 MEMB     3        POPC     H13C     HL       0.250000       1.00800           0
      1149 MEMB     3        POPC     C14      CTL5    -0.350000       12.0110           0
      1150 MEMB     3        POPC     H14A     HL       0.250000       1.00800           0
      1151 MEMB     3        POPC     H14B     HL       0.250000       1.00800           0
      1152 MEMB     3        POPC     H14C     HL       0.250000       1.00800           0
      1153 MEMB     3        POPC     C15      CTL5    -0.350000       12.0110           0
      1154 MEMB     3        POPC     H15A     HL       0.250000       1.00800           0
      1155 MEMB     3        POPC     H15B     HL       0.250000       1.00800           0
      1156 MEMB     3        POPC     H15C     HL       0.250000       1.00800           0
      1157 MEMB     3        POPC     C11      CTL2    -0.800000E-01   12.0110           0
      1158 MEMB     3        POPC     H11A     HAL2     0.900000E-01   1.00800           0
      1159 MEMB     3        POPC     H11B     HAL2     0.900000E-01   1.00800           0
      1160 MEMB     3        POPC     P        PL        1.50000       30.9740           0
      1161 MEMB     3        POPC     O13      O2L     -0.780000       15.9994           0
      1162 MEMB     3        POPC     O14      O2L     -0.780000       15.9994           0
      1163 MEMB     3        POPC     O12      OSLP    -0.570000       15.9994           0
      1164 MEMB     3        POPC     O11      OSLP    -0.570000       15.9994           0
      1165 MEMB     3        POPC     C1       CTL2    -0.800000E-01   12.0110           0
      1166 MEMB     3        POPC     HA       HAL2     0.900000E-01   1.00800           0
      1167 MEMB     3        POPC     HB       HAL2     0.900000E-01   1.00800           0
      1168 MEMB     3        POPC     C2       CTL1     0.170000       12.0110           0
      1169 MEMB     3        POPC     HS       HAL1     0.900000E-01   1.00800           0
      1170 MEMB     3        POPC     O21      OSL     -0.490000       15.9994           0
      1171 MEMB     3        POPC     C21      CL       0.900000       12.0110           0
      1172 MEMB     3        POPC     O22      OBL     -0.630000       15.9994           0
      1173 MEMB     3        POPC     C22      CTL2    -0.220000       12.0110           0
      1174 MEMB     3        POPC     H2R      HAL2     0.900000E-01   1.00800           0
      1175 MEMB     3        POPC     H2S      HAL2     0.900000E-01   1.00800           0
      1176 MEMB     3        POPC     C3       CTL2     0.800000E-01   12.0110           0
      1177 MEMB     3        POPC     HX       HAL2     0.900000E-01   1.00800           0
      1178 MEMB     3        POPC     HY       HAL2     0.900000E-01   1.00800           0
      1179 MEMB     3        POPC     O31      OSL     -0.490000       15.9994           0
      1180 MEMB     3        POPC     C31      CL       0.900000       12.0110           0
      1181 MEMB     3        POPC     O32      OBL     -0.630000       15.9994           0
      1182 MEMB     3        POPC     C32      CTL2    -0.220000       12.0110           0
      1183 MEMB     3        POPC     H2X      HAL2     0.900000E-01   1.00800           0
      1184 MEMB     3        POPC     H2Y      HAL2     0.900000E-01   1.00800           0
      1185 MEMB     3        POPC     C23      CTL2    -0.180000       12.0110           0
      1186 MEMB     3        POPC     H3R      HAL2     0.900000E-01   1.00800           0
      1187 MEMB     3        POPC     H3S      HAL2     0.900000E-01   1.00800           0
      1188 MEMB     3        POPC     C24      CTL2    -0.180000       12.0110           0
      1189 MEMB     3        POPC     H4R      HAL2     0.900000E-01   1.00800           0
      1190 MEMB     3        POPC     H4S      HAL2     0.900000E-01   1.00800           0
      1191 MEMB     3        POPC     C25      CTL2    -0.180000       12.0110           0
      1192 MEMB     3        POPC     H5R      HAL2     0.900000E-01   1.00800           0
      1193 MEMB     3        POPC     H5S      HAL2     0.900000E-01   1.00800           0
      1194 MEMB     3        POPC     C26      CTL2    -0.180000       12.0110           0
      1195 MEMB     3        POPC     H6R      HAL2     0.900000E-01   1.00800           0
      1196 MEMB     3        POPC     H6S      HAL2     0.900000E-01   1.00800           0
      1197 MEMB     3        POPC     C27      CTL2    -0.180000       12.0110           0
      1198 MEMB     3        POPC     H7R      HAL2     0.900000E-01   1.00800           0
      1199 MEMB     3        POPC     H7S      HAL2     0.900000E-01   1.00800           0
      1200 MEMB     3        POPC     C28      CTL2    -0.180000       12.0110           0
      1201 MEMB     3        POPC     H8R      HAL2     0.900000E-01   1.00800           0
      1202 MEMB     3        POPC     H8S      HAL2     0.900000E-01   1.00800           0
      1203 MEMB     3        POPC     C29      CEL1    -0.150000       12.0110           0
      1204 MEMB     3        POPC     H91      HEL1     0.150000       1.00800           0
      1205 MEMB     3        POPC     C210     CEL1    -0.150000       12.0110           0
      1206 MEMB     3        POPC     H101     HEL1     0.150000       1.00800           0
      1207 MEMB     3        POPC     C211     CTL2    -0.180000       12.0110           0
      1208 MEMB     3        POPC     H11R     HAL2     0.900000E-01   1.00800           0
      1209 MEMB     3        POPC     H11S     HAL2     0.900000E-01   1.00800           0
      1210 MEMB     3        POPC     C212     CTL2    -0.180000       12.0110           0
      1211 MEMB     3        POPC     H12R     HAL2     0.900000E-01   1.00800           0
      1212 MEMB     3        POPC     H12S     HAL2     0.900000E-01   1.00800           0
      1213 MEMB     3        POPC     C213     CTL2    -0.180000       12.0110           0
      1214 MEMB     3        POPC     H13R     HAL2     0.900000E-01   1.00800           0
      1215 MEMB     3        POPC     H13S     HAL2     0.900000E-01   1.00800           0
      1216 MEMB     3        POPC     C214     CTL2    -0.180000       12.0110           0
      1217 MEMB     3        POPC     H14R     HAL2     0.900000E-01   1.00800           0
      1218 MEMB     3        POPC     H14S     HAL2     0.900000E-01   1.00800           0
      1219 MEMB     3        POPC     C215     CTL2    -0.180000       12.0110           0
      1220 MEMB     3        POPC     H15R     HAL2     0.900000E-01   1.00800           0
      1221 MEMB     3        POPC     H15S     HAL2     0.900000E-01   1.00800           0
      1222 MEMB     3        POPC     C216     CTL2    -0.180000       12.0110           0
      1223 MEMB     3        POPC     H16R     HAL2     0.900000E-01   1.00800           0
      1224 MEMB     3        POPC     H16S     HAL2     0.900000E-01   1.00800           0
      1225 MEMB     3        POPC     C217     CTL2    -0.180000       12.0110           0
      1226 MEMB     3        POPC     H17R     HAL2     0.900000E-01   1.00800           0
      1227 MEMB     3        POPC     H17S     HAL2     0.900000E-01   1.00800           0
      1228 MEMB     3        POPC     C218     CTL3    -0.270000       12.0110           0
      1229 MEMB     3        POPC     H18R     HAL3     0.900000E-01   1.00800           0
      1230 MEMB     3        POPC     H18S     HAL3     0.900000E-01   1.00800           0
      1231 MEMB     3        POPC     H18T     HAL3     0.900000E-01   1.00800           0
      1232 MEMB     3        POPC     C33      CTL2    -0.180000       12.0110           0
      1233 MEMB     3        POPC     H3X      HAL2     0.900000E-01   1.00800           0
      1234 MEMB     3        POPC     H3Y      HAL2     0.900000E-01   1.00800           0
      1235 MEMB     3        POPC     C34      CTL2    -0.180000       12.0110           0
      1236 MEMB     3        POPC     H4X      HAL2     0.900000E-01   1.00800           0
      1237 MEMB     3        POPC     H4Y      HAL2     0.900000E-01   1.00800           0
      1238 MEMB     3        POPC     C35      CTL2    -0.180000       12.0110           0
      1239 MEMB     3        POPC     H5X      HAL2     0.900000E-01   1.00800           0
      1240 MEMB     3        POPC     H5Y      HAL2     0.900000E-01   1.00800           0
      1241 MEMB     3        POPC     C36      CTL2    -0.180000       12.0110           0
      1242 MEMB     3        POPC     H6X      HAL2     0.900000E-01   1.00800           0
      1243 MEMB     3        POPC     H6Y      HAL2     0.900000E-01   1.00800           0
      1244 MEMB     3        POPC     C37      CTL2    -0.180000       12.0110           0
      1245 MEMB     3        POPC     H7X      HAL2     0.900000E-01   1.00800           0
      1246 MEMB     3        POPC     H7Y      HAL2     0.900000E-01   1.00800           0
      1247 MEMB     3        POPC     C38      CTL2    -0.180000       12.0110           0
      1248 MEMB     3        POPC     H8X      HAL2     0.900000E-01   1.00800           0
      1249 MEMB     3        POPC     H8Y      HAL2     0.900000E-01   1.00800           0
      1250 MEMB     3        POPC     C39      CTL2    -0.180000       12.0110           0
      1251 MEMB     3        POPC     H9X      HAL2     0.900000E-01   1.00800           0
      1252 MEMB     3        POPC     H9Y      HAL2     0.900000E-01   1.00800           0
      1253 MEMB     3        POPC     C310     CTL2    -0.180000       12.0110           0
      1254 MEMB     3        POPC     H10X     HAL2     0.900000E-01   1.00800           0
      1255 MEMB     3        POPC     H10Y     HAL2     0.900000E-01   1.00800           0
      1256 MEMB     3        POPC     C311     CTL2    -0.180000       12.0110           0
      1257 MEMB     3        POPC     H11X     HAL2     0.900000E-01   1.00800           0
      1258 MEMB     3        POPC     H11Y     HAL2     0.900000E-01   1.00800           0
      1259 MEMB     3        POPC     C312     CTL2    -0.180000       12.0110           0
      1260 MEMB     3        POPC     H12X     HAL2     0.900000E-01   1.00800           0
      1261 MEMB     3        POPC     H12Y     HAL2     0.900000E-01   1.00800           0
      1262 MEMB     3        POPC     C313     CTL2    -0.180000       12.0110           0
      1263 MEMB     3        POPC     H13X     HAL2     0.900000E-01   1.00800           0
      1264 MEMB     3        POPC     H13Y     HAL2     0.900000E-01   1.00800           0
      1265 MEMB     3        POPC     C314     CTL2    -0.180000       12.0110           0
      1266 MEMB     3        POPC     H14X     HAL2     0.900000E-01   1.00800           0
      1267 MEMB     3        POPC     H14Y     HAL2     0.900000E-01   1.00800           0
      1268 MEMB     3        POPC     C315     CTL2    -0.180000       12.0110           0
      1269 MEMB     3        POPC     H15X     HAL2     0.900000E-01   1.00800           0
      1270 MEMB     3        POPC     H15Y     HAL2     0.900000E-01   1.00800           0
      1271 MEMB     3        POPC     C316     CTL3    -0.270000       12.0110           0
      1272 MEMB     3        POPC     H16X     HAL3     0.900000E-01   1.00800           0
      1273 MEMB     3        POPC     H16Y     HAL3     0.900000E-01   1.00800           0
      1274 MEMB     3        POPC     H16Z     HAL3     0.900000E-01   1.00800           0
      1275 MEMB     4        POPC     N        NTL     -0.600000       14.0070           0
      1276 MEMB     4        POPC     C12      CTL2    -0.100000       12.0110           0
      1277 MEMB     4        POPC     H12A     HL       0.250000       1.00800           0
      1278 MEMB     4        POPC     H12B     HL       0.250000       1.00800           0
      1279 MEMB     4        POPC     C13      CTL5    -0.350000       12.0110           0
      1280 MEMB     4        POPC     H13A     HL       0.250000       1.00800           0
      1281 MEMB     4        POPC     H13B     HL       0.250000       1.00800           0
      1282 MEMB     4        POPC     H13C     HL       0.250000       1.00800           0
      1283 MEMB     4        POPC     C14      CTL5    -0.350000       12.0110           0
      1284 MEMB     4        POPC     H14A     HL       0.250000       1.00800           0
      1285 MEMB     4        POPC     H14B     HL       0.250000       1.00800           0
      1286 MEMB     4        POPC     H14C     HL       0.250000       1.00800           0
      1287 MEMB     4        POPC     C15      CTL5    -0.350000       12.0110           0
      1288 MEMB     4        POPC     H15A     HL       0.250000       1.00800           0
      1289 MEMB     4        POPC     H15B     HL       0.250000       1.00800           0
      1290 MEMB     4        POPC     H15C     HL       0.250000       1.00800           0
      1291 MEMB     4        POPC     C11      CTL2    -0.800000E-01   12.0110           0
      1292 MEMB     4        POPC     H11A     HAL2     0.900000E-01   1.00800           0
      1293 MEMB     4        POPC     H11B     HAL2     0.900000E-01   1.00800           0
      1294 MEMB     4        POPC     P        PL        1.50000       30.9740           0
      1295 MEMB     4        POPC     O13      O2L     -0.780000       15.9994           0
      1296 MEMB     4        POPC     O14      O2L     -0.780000       15.9994           0
      1297 MEMB     4        POPC     O12      OSLP    -0.570000       15.9994           0
      1298 MEMB     4        POPC     O11      OSLP    -0.570000       15.9994           0
      1299 MEMB     4        POPC     C1       CTL2    -0.800000E-01   12.0110           0
      1300 MEMB     4        POPC     HA       HAL2     0.900000E-01   1.00800           0
      1301 MEMB     4        POPC     HB       HAL2     0.900000E-01   1.00800           0
      1302 MEMB     4        POPC     C2       CTL1     0.170000       12.0110           0
      1303 MEMB     4        POPC     HS       HAL1     0.900000E-01   1.00800           0
      1304 MEMB     4        POPC     O21      OSL     -0.490000       15.9994           0
      1305 MEMB     4        POPC     C21      CL       0.900000       12.0110           0
      1306 MEMB     4        POPC     O22      OBL     -0.630000       15.9994           0
      1307 MEMB     4        POPC     C22      CTL2    -0.220000       12.0110           0
      1308 MEMB     4        POPC     H2R      HAL2     0.900000E-01   1.00800           0
      1309 MEMB     4        POPC     H2S      HAL2     0.900000E-01   1.00800           0
      1310 MEMB     4        POPC     C3       CTL2     0.800000E-01   12.0110           0
      1311 MEMB     4        POPC     HX       HAL2     0.900000E-01   1.00800           0
      1312 MEMB     4        POPC     HY       HAL2     0.900000E-01   1.00800           0
      1313 MEMB     4        POPC     O31      OSL     -0.490000       15.9994           0
      1314 MEMB     4        POPC     C31      CL       0.900000       12.0110           0
      1315 MEMB     4        POPC     O32      OBL     -0.630000       15.9994           0
      1316 MEMB     4        POPC     C32      CTL2    -0.220000       12.0110           0
      1317 MEMB     4        POPC     H2X      HAL2     0.900000E-01   1.00800           0
      1318 MEMB     4        POPC     H2Y      HAL2     0.900000E-01   1.00800           0
      1319 MEMB     4        POPC     C23      CTL2    -0.180000       12.0110           0
      1320 MEMB     4        POPC     H3R      HAL2     0.900000E-01   1.00800           0
      1321 MEMB     4        POPC     H3S      HAL2     0.900000E-01   1.00800           0
      1322 MEMB     4        POPC     C24      CTL2    -0.180000       12.0110           0
      1323 MEMB     4        POPC     H4R      HAL2     0.900000E-01   1.00800           0
      1324 MEMB     4        POPC     H4S      HAL2     0.900000E-01   1.00800           0
      1325 MEMB     4        POPC     C25      CTL2    -0.180000       12.0110           0
      1326 MEMB     4        POPC     H5R      HAL2     0.900000E-01   1.00800           0
      1327 MEMB     4        POPC     H5S      HAL2     0.900000E-01   1.00800           0
      1328 MEMB     4        POPC     C26      CTL2    -0.180000       12.0110           0
      1329 MEMB     4        POPC     H6R      HAL2     0.900000E-01   1.00800           0
      1330 MEMB     4        POPC     H6S      HAL2     0.900000E-01   1.00800           0
      1331 MEMB     4        POPC     C27      CTL2    -0.180000       12.0110           0
      1332 MEMB     4        POPC     H7R      HAL2     0.900000E-01   1.00800           0
      1333 MEMB     4        POPC     H7S      HAL2     0.900000E-01   1.00800           0
      1334 MEMB     4        POPC     C28      CTL2    -0.180000       12.0110           0
      1335 MEMB     4        POPC     H8R      HAL2     0.900000E-01   1.00800           0
      1336 MEMB     4        POPC     H8S      HAL2     0.900000E-01   1.00800           0
      1337 MEMB     4        POPC     C29      CEL1    -0.150000       12.0110           0
      1338 MEMB     4        POPC     H91      HEL1     0.150000       1.00800           0
      1339 MEMB     4        POPC     C210     CEL1    -0.150000       12.0110           0
      1340 MEMB     4        POPC     H101     HEL1     0.150000       1.00800           0
      1341 MEMB     4        POPC     C211     CTL2    -0.180000       12.0110           0
      1342 MEMB     4        POPC     H11R     HAL2     0.900000E-01   1.00800           0
      1343 MEMB     4        POPC     H11S     HAL2     0.900000E-01   1.00800           0
      1344 MEMB     4        POPC     C212     CTL2    -0.180000       12.0110           0
      1345 MEMB     4        POPC     H12R     HAL2     0.900000E-01   1.00800           0
      1346 MEMB     4        POPC     H12S     HAL2     0.900000E-01   1.00800           0
      1347 MEMB     4        POPC     C213     CTL2    -0.180000       12.0110           0
      1348 MEMB     4        POPC     H13R     HAL2     0.900000E-01   1.00800           0
      1349 MEMB     4        POPC     H13S     HAL2     0.900000E-01   1.00800           0
      1350 MEMB     4        POPC     C214     CTL2    -0.180000       12.0110           0
      1351 MEMB     4        POPC     H14R     HAL2     0.900000E-01   1.00800           0
      1352 MEMB     4        POPC     H14S     HAL2     0.900000E-01   1.00800           0
      1353 MEMB     4        POPC     C215     CTL2    -0.180000       12.0110           0
      1354 MEMB     4        POPC     H15R     HAL2     0.900000E-01   1.00800           0
      1355 MEMB     4        POPC     H15S     HAL2     0.900000E-01   1.00800           0
      1356 MEMB     4        POPC     C216     CTL2    -0.180000       12.0110           0
      1357 MEMB     4        POPC     H16R     HAL2     0.900000E-01   1.00800           0
      1358 MEMB     4        POPC     H16S     HAL2     0.900000E-01   1.00800           0
      1359 MEMB     4        POPC     C217     CTL2    -0.180000       12.0110           0
      1360 MEMB     4        POPC     H17R     HAL2     0.900000E-01   1.00800           0
      1361 MEMB     4        POPC     H17S     HAL2     0.900000E-01   1.00800           0
      1362 MEMB     4        POPC     C218     CTL3    -0.270000       12.0110           0
      1363 MEMB     4        POPC     H18R     HAL3     0.900000E-01   1.00800           0
      1364 MEMB     4        POPC     H18S     HAL3     0.900000E-01   1.00800           0
      1365 MEMB     4        POPC     H18T     HAL3     0.900000E-01   1.00800           0
      1366 MEMB     4        POPC     C33      CTL2    -0.180000       12.0110           0
      1367 MEMB     4        POPC     H3X      HAL2     0.900000E-01   1.00800           0
      1368 MEMB     4        POPC     H3Y      HAL2     0.900000E-01   1.00800           0
      1369 MEMB     4        POPC     C34      CTL2    -0.180000       12.0110           0
      1370 MEMB     4        POPC     H4X      HAL2     0.900000E-01   1.00800           0
      1371 MEMB     4        POPC     H4Y      HAL2     0.900000E-01   1.00800           0
      1372 MEMB     4        POPC     C35      CTL2    -0.180000       12.0110           0
      1373 MEMB     4        POPC     H5X      HAL2     0.900000E-01   1.00800           0
      1374 MEMB     4        POPC     H5Y      HAL2     0.900000E-01   1.00800           0
      1375 MEMB     4        POPC     C36      CTL2    -0.180000       12.0110           0
      1376 MEMB     4        POPC     H6X      HAL2     0.900000E-01   1.00800           0
      1377 MEMB     4        POPC     H6Y      HAL2     0.900000E-01   1.00800           0
      1378 MEMB     4        POPC     C37      CTL2    -0.180000       12.0110           0
      1379 MEMB     4        POPC     H7X      HAL2     0.900000E-01   1.00800           0
      1380 MEMB     4        POPC     H7Y      HAL2     0.900000E-01   1.00800           0
      1381 MEMB     4        POPC     C38      CTL2    -0.180000       12.0110           0
      1382 MEMB     4        POPC     H8X      HAL2     0.900000E-01   1.00800           0
      1383 MEMB     4        POPC     H8Y      HAL2     0.900000E-01   1.00800           0
      1384 MEMB     4        POPC     C39      CTL2    -0.180000       12.0110           0
      1385 MEMB     4        POPC     H9X      HAL2     0.900000E-01   1.00800           0
      1386 MEMB     4        POPC     H9Y      HAL2     0.900000E-01   1.00800           0
      1387 MEMB     4        POPC     C310     CTL2    -0.180000       12.0110           0
      1388 MEMB     4        POPC     H10X     HAL2     0.900000E-01   1.00800           0
      1389 MEMB     4        POPC     H10Y     HAL2     0.900000E-01   1.00800           0
      1390 MEMB     4        POPC     C311     CTL2    -0.180000       12.0110           0
      1391 MEMB     4        POPC     H11X     HAL2     0.900000E-01   1.00800           0
      1392 MEMB     4        POPC     H11Y     HAL2     0.900000E-01   1.00800           0
      1393 MEMB     4        POPC     C312     CTL2    -0.180000       12.0110           0
      1394 MEMB     4        POPC     H12X     HAL2     0.900000E-01   1.00800           0
      1395 MEMB     4        POPC     H12Y     HAL2     0.900000E-01   1.00800           0
      1396 MEMB     4        POPC     C313     CTL2    -0.180000       12.0110           0
      1397 MEMB     4        POPC     H13X     HAL2     0.900000E-01   1.00800           0
      1398 MEMB     4        POPC     H13Y     HAL2     0.900000E-01   1.00800           0
      1399 MEMB     4        POPC     C314     CTL2    -0.180000       12.0110           0
      1400 MEMB     4        POPC     H14X     HAL2     0.900000E-01   1.00800           0
      1401 MEMB     4        POPC     H14Y     HAL2     0.900000E-01   1.00800           0
      1402 MEMB     4        POPC     C315     CTL2    -0.180000       12.0110           0
      1403 MEMB     4        POPC     H15X     HAL2     0.900000E-01   1.00800           0
      1404 MEMB     4        POPC     H15Y     HAL2     0.900000E-01   1.00800           0
      1405 MEMB     4        POPC     C316     CTL3    -0.270000       12.0110           0
      1406 MEMB     4        POPC     H16X     HAL3     0.900000E-01   1.00800           0
      1407 MEMB     4        POPC     H16Y     HAL3     0.900000E-01   1.00800           0
      1408 MEMB     4        POPC     H16Z     HAL3     0.900000E-01   1.00800           0
      1409 MEMB     5        POPC     N        NTL     -0.600000       14.0070           0
      1410 MEMB     5        POPC     C12      CTL2    -0.100000       12.0110           0
      1411 MEMB     5        POPC     H12A     HL       0.250000       1.00800           0
      1412 MEMB     5        POPC     H12B     HL       0.250000       1.00800           0
      1413 MEMB     5        POPC     C13      CTL5    -0.350000       12.0110           0
      1414 MEMB     5        POPC     H13A     HL       0.250000       1.00800           0
      1415 MEMB     5        POPC     H13B     HL       0.250000       1.00800           0
      1416 MEMB     5        POPC     H13C     HL       0.250000       1.00800           0
      1417 MEMB     5        POPC     C14      CTL5    -0.350000       12.0110           0
      1418 MEMB     5        POPC     H14A     HL       0.250000       1.00800           0
      1419 MEMB     5        POPC     H14B     HL       0.250000       1.00800           0
      1420 MEMB     5        POPC     H14C     HL       0.250000       1.00800           0
      1421 MEMB     5        POPC     C15      CTL5    -0.350000       12.0110           0
      1422 MEMB     5        POPC     H15A     HL       0.250000       1.00800           0
      1423 MEMB     5        POPC     H15B     HL       0.250000       1.00800           0
      1424 MEMB     5        POPC     H15C     HL       0.250000       1.00800           0
      1425 MEMB     5        POPC     C11      CTL2    -0.800000E-01   12.0110           0
      1426 MEMB     5        POPC     H11A     HAL2     0.900000E-01   1.00800           0
      1427 MEMB     5        POPC     H11B     HAL2     0.900000E-01   1.00800           0
      1428 MEMB     5        POPC     P        PL        1.50000       30.9740           0
      1429 MEMB     5        POPC     O13      O2L     -0.780000       15.9994           0
      1430 MEMB     5        POPC     O14      O2L     -0.780000       15.9994           0
      1431 MEMB     5        POPC     O12      OSLP    -0.570000       15.9994           0
      1432 MEMB     5        POPC     O11      OSLP    -0.570000       15.9994           0
      1433 MEMB     5        POPC     C1       CTL2    -0.800000E-01   12.0110           0
      1434 MEMB     5        POPC     HA       HAL2     0.900000E-01   1.00800           0
      1435 MEMB     5        POPC     HB       HAL2     0.900000E-01   1.00800           0
      1436 MEMB     5        POPC     C2       CTL1     0.170000       12.0110           0
      1437 MEMB     5        POPC     HS       HAL1     0.900000E-01   1.00800           0
      1438 MEMB     5        POPC     O21      OSL     -0.490000       15.9994           0
      1439 MEMB     5        POPC     C21      CL       0.900000       12.0110           0
      1440 MEMB     5        POPC     O22      OBL     -0.630000       15.9994           0
      1441 MEMB     5        POPC     C22      CTL2    -0.220000       12.0110           0
      1442 MEMB     5        POPC     H2R      HAL2     0.900000E-01   1.00800           0
      1443 MEMB     5        POPC     H2S      HAL2     0.900000E-01   1.00800           0
      1444 MEMB     5        POPC     C3       CTL2     0.800000E-01   12.0110           0
      1445 MEMB     5        POPC     HX       HAL2     0.900000E-01   1.00800           0
      1446 MEMB     5        POPC     HY       HAL2     0.900000E-01   1.00800           0
      1447 MEMB     5        POPC     O31      OSL     -0.490000       15.9994           0
      1448 MEMB     5        POPC     C31      CL       0.900000       12.0110           0
      1449 MEMB     5        POPC     O32      OBL     -0.630000       15.9994           0
      1450 MEMB     5        POPC     C32      CTL2    -0.220000       12.0110           0
      1451 MEMB     5        POPC     H2X      HAL2     0.900000E-01   1.00800           0
      1452 MEMB     5        POPC     H2Y      HAL2     0.900000E-01   1.00800           0
      1453 MEMB     5        POPC     C23      CTL2    -0.180000       12.0110           0
      1454 MEMB     5        POPC     H3R      HAL2     0.900000E-01   1.00800           0
      1455 MEMB     5        POPC     H3S      HAL2     0.900000E-01   1.00800           0
      1456 MEMB     5        POPC     C24      CTL2    -0.180000       12.0110           0
      1457 MEMB     5        POPC     H4R      HAL2     0.900000E-01   1.00800           0
      1458 MEMB     5        POPC     H4S      HAL2     0.900000E-01   1.00800           0
      1459 MEMB     5        POPC     C25      CTL2    -0.180000       12.0110           0
      1460 MEMB     5        POPC     H5R      HAL2     0.900000E-01   1.00800           0
      1461 MEMB     5        POPC     H5S      HAL2     0.900000E-01   1.00800           0
      1462 MEMB     5        POPC     C26      CTL2    -0.180000       12.0110           0
      1463 MEMB     5        POPC     H6R      HAL2     0.900000E-01   1.00800           0
      1464 MEMB     5        POPC     H6S      HAL2     0.900000E-01   1.00800           0
      1465 MEMB     5        POPC     C27      CTL2    -0.180000       12.0110           0
      1466 MEMB     5        POPC     H7R      HAL2     0.900000E-01   1.00800           0
      1467 MEMB     5        POPC     H7S      HAL2     0.900000E-01   1.00800           0
      1468 MEMB     5        POPC     C28      CTL2    -0.180000       12.0110           0
      1469 MEMB     5        POPC     H8R      HAL2     0.900000E-01   1.00800           0
      1470 MEMB     5        POPC     H8S      HAL2     0.900000E-01   1.00800           0
      1471 MEMB     5        POPC     C29      CEL1    -0.150000       12.0110           0
      1472 MEMB     5        POPC     H91      HEL1     0.150000       1.00800           0
      1473 MEMB     5        POPC     C210     CEL1    -0.150000       12.0110           0
      1474 MEMB     5        POPC     H101     HEL1     0.150000       1.00800           0
      1475 MEMB     5        POPC     C211     CTL2    -0.180000       12.0110           0
      1476 MEMB     5        POPC     H11R     HAL2     0.900000E-01   1.00800           0
      1477 MEMB     5        POPC     H11S     HAL2     0.900000E-01   1.00800           0
      1478 MEMB     5        POPC     C212     CTL2    -0.180000       12.0110           0
      1479 MEMB     5        POPC     H12R     HAL2     0.900000E-01   1.00800           0
      1480 MEMB     5        POPC     H12S     HAL2     0.900000E-01   1.00800           0
      1481 MEMB     5        POPC     C213     CTL2    -0.180000       12.0110           0
      1482 MEMB     5        POPC     H13R     HAL2     0.900000E-01   1.00800           0
      1483 MEMB     5        POPC     H13S     HAL2     0.900000E-01   1.00800           0
      1484 MEMB     5        POPC     C214     CTL2    -0.180000       12.0110           0
      1485 MEMB     5        POPC     H14R     HAL2     0.900000E-01   1.00800           0
      1486 MEMB     5        POPC     H14S     HAL2     0.900000E-01   1.00800           0
      1487 MEMB     5        POPC     C215     CTL2    -0.180000       12.0110           0
      1488 MEMB     5        POPC     H15R     HAL2     0.900000E-01   1.00800           0
      1489 MEMB     5        POPC     H15S     HAL2     0.900000E-01   1.00800           0
      1490 MEMB     5        POPC     C216     CTL2    -0.180000       12.0110           0
      1491 MEMB     5        POPC     H16R     HAL2     0.900000E-01   1.00800           0
      1492 MEMB     5        POPC     H16S     HAL2     0.900000E-01   1.00800           0
      1493 MEMB     5        POPC     C217     CTL2    -0.180000       12.0110           0
      1494 MEMB     5        POPC     H17R     HAL2     0.900000E-01   1.00800           0
      1495 MEMB     5        POPC     H17S     HAL2     0.900000E-01   1.00800           0
      1496 MEMB     5        POPC     C218     CTL3    -0.270000       12.0110           0
      1497 MEMB     5        POPC     H18R     HAL3     0.900000E-01   1.00800           0
      1498 MEMB     5        POPC     H18S     HAL3     0.900000E-01   1.00800           0
      1499 MEMB     5        POPC     H18T     HAL3     0.900000E-01   1.00800           0
      1500 MEMB     5        POPC     C33      CTL2    -0.180000       12.0110           0
      1501 MEMB     5        POPC     H3X      HAL2     0.900000E-01   1.00800           0
      1502 MEMB     5        POPC     H3Y      HAL2     0.900000E-01   1.00800           0
      1503 MEMB     5        POPC     C34      CTL2    -0.180000       12.0110           0
      1504 MEMB     5        POPC     H4X      HAL2     0.900000E-01   1.00800           0
      1505 MEMB     5        POPC     H4Y      HAL2     0.900000E-01   1.00800           0
      1506 MEMB     5        POPC     C35      CTL2    -0.180000       12.0110           0
      1507 MEMB     5        POPC     H5X      HAL2     0.900000E-01   1.00800           0
      1508 MEMB     5        POPC     H5Y      HAL2     0.900000E-01   1.00800           0
      1509 MEMB     5        POPC     C36      CTL2    -0.180000       12.0110           0
      1510 MEMB     5        POPC     H6X      HAL2     0.900000E-01   1.00800           0
      1511 MEMB     5        POPC     H6Y      HAL2     0.900000E-01   1.00800           0
      1512 MEMB     5        POPC     C37      CTL2    -0.180000       12.0110           0
      1513 MEMB     5        POPC     H7X      HAL2     0.900000E-01   1.00800           0
      1514 MEMB     5        POPC     H7Y      HAL2     0.900000E-01   1.00800           0
      1515 MEMB     5        POPC     C38      CTL2    -0.180000       12.0110           0
      1516 MEMB     5        POPC     H8X      HAL2     0.900000E-01   1.00800           0
      1517 MEMB     5        POPC     H8Y      HAL2     0.900000E-01   1.00800           0
      1518 MEMB     5        POPC     C39      CTL2    -0.180000       12.0110           0
      1519 MEMB     5        POPC     H9X      HAL2     0.900000E-01   1.00800           0
      1520 MEMB     5        POPC     H9Y      HAL2     0.900000E-01   1.00800           0
      1521 MEMB     5        POPC     C310     CTL2    -0.180000       12.0110           0
      1522 MEMB     5        POPC     H10X     HAL2     0.900000E-01   1.00800           0
      1523 MEMB     5        POPC     H10Y     HAL2     0.900000E-01   1.00800           0
      1524 MEMB     5        POPC     C311     CTL2    -0.180000       12.0110           0
      1525 MEMB     5        POPC     H11X     HAL2     0.900000E-01   1.00800           0
      1526 MEMB     5        POPC     H11Y     HAL2     0.900000E-01   1.00800           0
      1527 MEMB     5        POPC     C312     CTL2    -0.180000       12.0110           0
      1528 MEMB     5        POPC     H12X     HAL2     0.900000E-01   1.00800           0
      1529 MEMB     5        POPC     H12Y     HAL2     0.900000E-01   1.00800           0
      1530 MEMB     5        POPC     C313     CTL2    -0.180000       12.0110           0
      1531 MEMB     5        POPC     H13X     HAL2     0.900000E-01   1.00800           0
      1532 MEMB     5        POPC     H13Y     HAL2     0.900000E-01   1.00800           0
      1533 MEMB     5        POPC     C314     CTL2    -0.180000       12.0110           0
      1534 MEMB     5        POPC     H14X     HAL2     0.900000E-01   1.00800           0
      1535 MEMB     5        POPC     H14Y     HAL2     0.900000E-01   1.00800           0
      1536 MEMB     5        POPC     C315     CTL2    -0.180000       12.0110           0
      1537 MEMB     5        POPC     H15X     HAL2     0.900000E-01   1.00800           0
      1538 MEMB     5        POPC     H15Y     HAL2     0.900000E-01   1.00800           0
      1539 MEMB     5        POPC     C316     CTL3    -0.270000       12.0110           0
      1540 MEMB     5        POPC     H16X     HAL3     0.900000E-01   1.00800           0
      1541 MEMB     5        POPC     H16Y     HAL3     0.900000E-01   1.00800           0
      1542 MEMB     5        POPC     H16Z     HAL3     0.900000E-01   1.00800           0
      1543 MEMB     6        POPC     N        NTL     -0.600000       14.0070           0
      1544 MEMB     6        POPC     C12      CTL2    -0.100000       12.0110           0
      1545 MEMB     6        POPC     H12A     HL       0.250000       1.00800           0
      1546 MEMB     6        POPC     H12B     HL       0.250000       1.00800           0
      1547 MEMB     6        POPC     C13      CTL5    -0.350000       12.0110           0
      1548 MEMB     6        POPC     H13A     HL       0.250000       1.00800           0
      1549 MEMB     6        POPC     H13B     HL       0.250000       1.00800           0
      1550 MEMB     6        POPC     H13C     HL       0.250000       1.00800           0
      1551 MEMB     6        POPC     C14      CTL5    -0.350000       12.0110           0
      1552 MEMB     6        POPC     H14A     HL       0.250000       1.00800           0
      1553 MEMB     6        POPC     H14B     HL       0.250000       1.00800           0
      1554 MEMB     6        POPC     H14C     HL       0.250000       1.00800           0
      1555 MEMB     6        POPC     C15      CTL5    -0.350000       12.0110           0
      1556 MEMB     6        POPC     H15A     HL       0.250000       1.00800           0
      1557 MEMB     6        POPC     H15B     HL       0.250000       1.00800           0
      1558 MEMB     6        POPC     H15C     HL       0.250000       1.00800           0
      1559 MEMB     6        POPC     C11      CTL2    -0.800000E-01   12.0110           0
      1560 MEMB     6        POPC     H11A     HAL2     0.900000E-01   1.00800           0
      1561 MEMB     6        POPC     H11B     HAL2     0.900000E-01   1.00800           0
      1562 MEMB     6        POPC     P        PL        1.50000       30.9740           0
      1563 MEMB     6        POPC     O13      O2L     -0.780000       15.9994           0
      1564 MEMB     6        POPC     O14      O2L     -0.780000       15.9994           0
      1565 MEMB     6        POPC     O12      OSLP    -0.570000       15.9994           0
      1566 MEMB     6        POPC     O11      OSLP    -0.570000       15.9994           0
      1567 MEMB     6        POPC     C1       CTL2    -0.800000E-01   12.0110           0
      1568 MEMB     6        POPC     HA       HAL2     0.900000E-01   1.00800           0
      1569 MEMB     6        POPC     HB       HAL2     0.900000E-01   1.00800           0
      1570 MEMB     6        POPC     C2       CTL1     0.170000       12.0110           0
      1571 MEMB     6        POPC     HS       HAL1     0.900000E-01   1.00800           0
      1572 MEMB     6        POPC     O21      OSL     -0.490000       15.9994           0
      1573 MEMB     6        POPC     C21      CL       0.900000       12.0110           0
      1574 MEMB     6        POPC     O22      OBL     -0.630000       15.9994           0
      1575 MEMB     6        POPC     C22      CTL2    -0.220000       12.0110           0
      1576 MEMB     6        POPC     H2R      HAL2     0.900000E-01   1.00800           0
      1577 MEMB     6        POPC     H2S      HAL2     0.900000E-01   1.00800           0
      1578 MEMB     6        POPC     C3       CTL2     0.800000E-01   12.0110           0
      1579 MEMB     6        POPC     HX       HAL2     0.900000E-01   1.00800           0
      1580 MEMB     6        POPC     HY       HAL2     0.900000E-01   1.00800           0
      1581 MEMB     6        POPC     O31      OSL     -0.490000       15.9994           0
      1582 MEMB     6        POPC     C31      CL       0.900000       12.0110           0
      1583 MEMB     6        POPC     O32      OBL     -0.630000       15.9994           0
      1584 MEMB     6        POPC     C32      CTL2    -0.220000       12.0110           0
      1585 MEMB     6        POPC     H2X      HAL2     0.900000E-01   1.00800           0
      1586 MEMB     6        POPC     H2Y      HAL2     0.900000E-01   1.00800           0
      1587 MEMB     6        POPC     C23      CTL2    -0.180000       12.0110           0
      1588 MEMB     6        POPC     H3R      HAL2     0.900000E-01   1.00800           0
      1589 MEMB     6        POPC     H3S      HAL2     0.900000E-01   1.00800           0
      1590 MEMB     6        POPC     C24      CTL2    -0.180000       12.0110           0
      1591 MEMB     6        POPC     H4R      HAL2     0.900000E-01   1.00800           0
      1592 MEMB     6        POPC     H4S      HAL2     0.900000E-01   1.00800           0
      1593 MEMB     6        POPC     C25      CTL2    -0.180000       12.0110           0
      1594 MEMB     6        POPC     H5R      HAL2     0.900000E-01   1.00800           0
      1595 MEMB     6        POPC     H5S      HAL2     0.900000E-01   1.00800           0
      1596 MEMB     6        POPC     C26      CTL2    -0.180000       12.0110           0
      1597 MEMB     6        POPC     H6R      HAL2     0.900000E-01   1.00800           0
      1598 MEMB     6        POPC     H6S      HAL2     0.900000E-01   1.00800           0
      1599 MEMB     6        POPC     C27      CTL2    -0.180000       12.0110           0
      1600 MEMB     6        POPC     H7R      HAL2     0.900000E-01   1.00800           0
      1601 MEMB     6        POPC     H7S      HAL2     0.900000E-01   1.00800           0
      1602 MEMB     6        POPC     C28      CTL2    -0.180000       12.0110           0
      1603 MEMB     6        POPC     H8R      HAL2     0.900000E-01   1.00800           0
      1604 MEMB     6        POPC     H8S      HAL2     0.900000E-01   1.00800           0
      1605 MEMB     6        POPC     C29      CEL1    -0.150000       12.0110           0
      1606 MEMB     6        POPC     H91      HEL1     0.150000       1.00800           0
      1607 MEMB     6        POPC     C210     CEL1    -0.150000       12.0110           0
      1608 MEMB     6        POPC     H101     HEL1     0.150000       1.00800           0
      1609 MEMB     6        POPC     C211     CTL2    -0.180000       12.0110           0
      1610 MEMB     6        POPC     H11R     HAL2     0.900000E-01   1.00800           0
      1611 MEMB     6        POPC     H11S     HAL2     0.900000E-01   1.00800           0
      1612 MEMB     6        POPC     C212     CTL2    -0.180000       12.0110           0
      1613 MEMB     6        POPC     H12R     HAL2     0.900000E-01   1.00800           0
      1614 MEMB     6        POPC     H12S     HAL2     0.900000E-01   1.00800           0
      1615 MEMB     6        POPC     C213     CTL2    -0.180000       12.0110           0
      1616 MEMB     6        POPC     H13R     HAL2     0.900000E-01   1.00800           0
      1617 MEMB     6        POPC     H13S     HAL2     0.900000E-01   1.00800           0
      1618 MEMB     6        POPC     C214     CTL2    -0.180000       12.0110           0
      1619 MEMB     6        POPC     H14R     HAL2     0.900000E-01   1.00800           0
      1620 MEMB     6        POPC     H14S     HAL2     0.900000E-01   1.00800           0
      1621 MEMB     6        POPC     C215     CTL2    -0.180000       12.0110           0
      1622 MEMB     6        POPC     H15R     HAL2     0.900000E-01   1.00800           0
      1623 MEMB     6        POPC     H15S     HAL2     0.900000E-01   1.00800           0
      1624 MEMB     6        POPC     C216     CTL2    -0.180000       12.0110           0
      1625 MEMB     6        POPC     H16R     HAL2     0.900000E-01   1.00800           0
      1626 MEMB     6        POPC     H16S     HAL2     0.900000E-01   1.00800           0
      1627 MEMB     6        POPC     C217     CTL2    -0.180000       12.0110           0
      1628 MEMB     6        POPC     H17R     HAL2     0.900000E-01   1.00800           0
      1629 MEMB     6        POPC     H17S     HAL2     0.900000E-01   1.00800           0
      1630 MEMB     6        POPC     C218     CTL3    -0.270000       12.0110           0
      1631 MEMB     6        POPC     H18R     HAL3     0.900000E-01   1.00800           0
      1632 MEMB     6        POPC     H18S     HAL3     0.900000E-01   1.00800           0
      1633 MEMB     6        POPC     H18T     HAL3     0.900000E-01   1.00800           0
      1634 MEMB     6        POPC     C33      CTL2    -0.180000       12.0110           0
      1635 MEMB     6        POPC     H3X      HAL2     0.900000E-01   1.00800           0
      1636 MEMB     6        POPC     H3Y      HAL2     0.900000E-01   1.00800           0
      1637 MEMB     6        POPC     C34      CTL2    -0.180000       12.0110           0
      1638 MEMB     6        POPC     H4X      HAL2     0.900000E-01   1.00800           0
      1639 MEMB     6        POPC     H4Y      HAL2     0.900000E-01   1.00800           0
      1640 MEMB     6        POPC     C35      CTL2    -0.180000       12.0110           0
      1641 MEMB     6        POPC     H5X      HAL2     0.900000E-01   1.00800           0
      1642 MEMB     6        POPC     H5Y      HAL2     0.900000E-01   1.00800           0
      1643 MEMB     6        POPC     C36      CTL2    -0.180000       12.0110           0
      1644 MEMB     6        POPC     H6X      HAL2     0.900000E-01   1.00800           0
      1645 MEMB     6        POPC     H6Y      HAL2     0.900000E-01   1.00800           0
      1646 MEMB     6        POPC     C37      CTL2    -0.180000       12.0110           0
      1647 MEMB     6        POPC     H7X      HAL2     0.900000E-01   1.00800           0
      1648 MEMB     6        POPC     H7Y      HAL2     0.900000E-01   1.00800           0
      1649 MEMB     6        POPC     C38      CTL2    -0.180000       12.0110           0
      1650 MEMB     6        POPC     H8X      HAL2     0.900000E-01   1.00800           0
      1651 MEMB     6        POPC     H8Y      HAL2     0.900000E-01   1.00800           0
      1652 MEMB     6        POPC     C39      CTL2    -0.180000       12.0110           0
      1653 MEMB     6        POPC     H9X      HAL2     0.900000E-01   1.00800           0
      1654 MEMB     6        POPC     H9Y      HAL2     0.900000E-01   1.00800           0
      1655 MEMB     6        POPC     C310     CTL2    -0.180000       12.0110           0
      1656 MEMB     6        POPC     H10X     HAL2     0.900000E-01   1.00800           0
      1657 MEMB     6        POPC     H10Y     HAL2     0.900000E-01   1.00800           0
      1658 MEMB     6        POPC     C311     CTL2    -0.180000       12.0110           0
      1659 MEMB     6        POPC     H11X     HAL2     0.900000E-01   1.00800           0
      1660 MEMB     6        POPC     H11Y     HAL2     0.900000E-01   1.00800           0
      1661 MEMB     6        POPC     C312     CTL2    -0.180000       12.0110           0
      1662 MEMB     6        POPC     H12X     HAL2     0.900000E-01   1.00800           0
      1663 MEMB     6        POPC     H12Y     HAL2     0.900000E-01   1.00800           0
      1664 MEMB     6        POPC     C313     CTL2    -0.180000       12.0110           0
      1665 MEMB     6        POPC     H13X     HAL2     0.900000E-01   1.00800           0
      1666 MEMB     6        POPC     H13Y     HAL2     0.900000E-01   1.00800           0
      1667 MEMB     6        POPC     C314     CTL2    -0.180000       12.0110           0
      1668 MEMB     6        POPC     H14X     HAL2     0.900000E-01   1.00800           0
      1669 MEMB     6        POPC     H14Y     HAL2     0.900000E-01   1.00800           0
      1670 MEMB     6        POPC     C315     CTL2    -0.180000       12.0110           0
      1671 MEMB     6        POPC     H15X     HAL2     0.900000E-01   1.00800           0
      1672 MEMB     6        POPC     H15Y     HAL2     0.900000E-01   1.00800           0
      1673 MEMB     6        POPC     C316     CTL3    -0.270000       12.0110           0
      1674 MEMB     6        POPC     H16X     HAL3     0.900000E-01   1.00800           0
      1675 MEMB     6        POPC     H16Y     HAL3     0.900000E-01   1.00800           0
      1676 MEMB     6        POPC     H16Z     HAL3     0.900000E-01   1.00800           0
      1677 MEMB     7        POPC     N        NTL     -0.600000       14.0070           0
      1678 MEMB     7        POPC     C12      CTL2    -0.100000       12.0110           0
      1679 MEMB     7        POPC     H12A     HL       0.250000       1.00800           0
      1680 MEMB     7        POPC     H12B     HL       0.250000       1.00800           0
      1681 MEMB     7        POPC     C13      CTL5    -0.350000       12.0110           0
      1682 MEMB     7        POPC     H13A     HL       0.250000       1.00800           0
      1683 MEMB     7        POPC     H13B     HL       0.250000       1.00800           0
      1684 MEMB     7        POPC     H13C     HL       0.250000       1.00800           0
      1685 MEMB     7        POPC     C14      CTL5    -0.350000       12.0110           0
      1686 MEMB     7        POPC     H14A     HL       0.250000       1.00800           0
      1687 MEMB     7        POPC     H14B     HL       0.250000       1.00800           0
      1688 MEMB     7        POPC     H14C     HL       0.250000       1.00800           0
      1689 MEMB     7        POPC     C15      CTL5    -0.350000       12.0110           0
      1690 MEMB     7        POPC     H15A     HL       0.250000       1.00800           0
      1691 MEMB     7        POPC     H15B     HL       0.250000       1.00800           0
      1692 MEMB     7        POPC     H15C     HL       0.250000       1.00800           0
      1693 MEMB     7        POPC     C11      CTL2    -0.800000E-01   12.0110           0
      1694 MEMB     7        POPC     H11A     HAL2     0.900000E-01   1.00800           0
      1695 MEMB     7        POPC     H11B     HAL2     0.900000E-01   1.00800           0
      1696 MEMB     7        POPC     P        PL        1.50000       30.9740           0
      1697 MEMB     7        POPC     O13      O2L     -0.780000       15.9994           0
      1698 MEMB     7        POPC     O14      O2L     -0.780000       15.9994           0
      1699 MEMB     7        POPC     O12      OSLP    -0.570000       15.9994           0
      1700 MEMB     7        POPC     O11      OSLP    -0.570000       15.9994           0
      1701 MEMB     7        POPC     C1       CTL2    -0.800000E-01   12.0110           0
      1702 MEMB     7        POPC     HA       HAL2     0.900000E-01   1.00800           0
      1703 MEMB     7        POPC     HB       HAL2     0.900000E-01   1.00800           0
      1704 MEMB     7        POPC     C2       CTL1     0.170000       12.0110           0
      1705 MEMB     7        POPC     HS       HAL1     0.900000E-01   1.00800           0
      1706 MEMB     7        POPC     O21      OSL     -0.490000       15.9994           0
      1707 MEMB     7        POPC     C21      CL       0.900000       12.0110           0
      1708 MEMB     7        POPC     O22      OBL     -0.630000       15.9994           0
      1709 MEMB     7        POPC     C22      CTL2    -0.220000       12.0110           0
      1710 MEMB     7        POPC     H2R      HAL2     0.900000E-01   1.00800           0
      1711 MEMB     7        POPC     H2S      HAL2     0.900000E-01   1.00800           0
      1712 MEMB     7        POPC     C3       CTL2     0.800000E-01   12.0110           0
      1713 MEMB     7        POPC     HX       HAL2     0.900000E-01   1.00800           0
      1714 MEMB     7        POPC     HY       HAL2     0.900000E-01   1.00800           0
      1715 MEMB     7        POPC     O31      OSL     -0.490000       15.9994           0
      1716 MEMB     7        POPC     C31      CL       0.900000       12.0110           0
      1717 MEMB     7        POPC     O32      OBL     -0.630000       15.9994           0
      1718 MEMB     7        POPC     C32      CTL2    -0.220000       12.0110           0
      1719 MEMB     7        POPC     H2X      HAL2     0.900000E-01   1.00800           0
      1720 MEMB     7        POPC     H2Y      HAL2     0.900000E-01   1.00800           0
      1721 MEMB     7        POPC     C23      CTL2    -0.180000       12.0110           0
      1722 MEMB     7        POPC     H3R      HAL2     0.900000E-01   1.00800           0
      1723 MEMB     7        POPC     H3S      HAL2     0.900000E-01   1.00800           0
      1724 MEMB     7        POPC     C24      CTL2    -0.180000       12.0110           0
      1725 MEMB     7        POPC     H4R      HAL2     0.900000E-01   1.00800           0
      1726 MEMB     7        POPC     H4S      HAL2     0.900000E-01   1.00800           0
      1727 MEMB     7        POPC     C25      CTL2    -0.180000       12.0110           0
      1728 MEMB     7        POPC     H5R      HAL2     0.900000E-01   1.00800           0
      1729 MEMB     7        POPC     H5S      HAL2     0.900000E-01   1.00800           0
      1730 MEMB     7        POPC     C26      CTL2    -0.180000       12.0110           0
      1731 MEMB     7        POPC     H6R      HAL2     0.900000E-01   1.00800           0
      1732 MEMB     7        POPC     H6S      HAL2     0.900000E-01   1.00800           0
      1733 MEMB     7        POPC     C27      CTL2    -0.180000       12.0110           0
      1734 MEMB     7        POPC     H7R      HAL2     0.900000E-01   1.00800           0
      1735 MEMB     7        POPC     H7S      HAL2     0.900000E-01   1.00800           0
      1736 MEMB     7        POPC     C28      CTL2    -0.180000       12.0110           0
      1737 MEMB     7        POPC     H8R      HAL2     0.900000E-01   1.00800           0
      1738 MEMB     7        POPC     H8S      HAL2     0.900000E-01   1.00800           0
      1739 MEMB     7        POPC     C29      CEL1    -0.150000       12.0110           0
      1740 MEMB     7        POPC     H91      HEL1     0.150000       1.00800           0
      1741 MEMB     7        POPC     C210     CEL1    -0.150000       12.0110           0
      1742 MEMB     7        POPC     H101     HEL1     0.150000       1.00800           0
      1743 MEMB     7        POPC     C211     CTL2    -0.180000       12.0110           0
      1744 MEMB     7        POPC     H11R     HAL2     0.900000E-01   1.00800           0
      1745 MEMB     7        POPC     H11S     HAL2     0.900000E-01   1.00800           0
      1746 MEMB     7        POPC     C212     CTL2    -0.180000       12.0110           0
      1747 MEMB     7        POPC     H12R     HAL2     0.900000E-01   1.00800           0
      1748 MEMB     7        POPC     H12S     HAL2     0.900000E-01   1.00800           0
      1749 MEMB     7        POPC     C213     CTL2    -0.180000       12.0110           0
      1750 MEMB     7        POPC     H13R     HAL2     0.900000E-01   1.00800           0
      1751 MEMB     7        POPC     H13S     HAL2     0.900000E-01   1.00800           0
      1752 MEMB     7        POPC     C214     CTL2    -0.180000       12.0110           0
      1753 MEMB     7        POPC     H14R     HAL2     0.900000E-01   1.00800           0
      1754 MEMB     7        POPC     H14S     HAL2     0.900000E-01   1.00800           0
      1755 MEMB     7        POPC     C215     CTL2    -0.180000       12.0110           0
      1756 MEMB     7        POPC     H15R     HAL2     0.900000E-01   1.00800           0
      1757 MEMB     7        POPC     H15S     HAL2     0.900000E-01   1.00800           0
      1758 MEMB     7        POPC     C216     CTL2    -0.180000       12.0110           0
      1759 MEMB     7        POPC     H16R     HAL2     0.900000E-01   1.00800           0
      1760 MEMB     7        POPC     H16S     HAL2     0.900000E-01   1.00800           0
      1761 MEMB     7        POPC     C217     CTL2    -0.180000       12.0110           0
      1762 MEMB     7        POPC     H17R     HAL2     0.900000E-01   1.00800           0
      1763 MEMB     7        POPC     H17S     HAL2     0.900000E-01   1.00800           0
      1764 MEMB     7        POPC     C218     CTL3    -0.270000       12.0110           0
      1765 MEMB     7        POPC     H18R     HAL3     0.900000E-01   1.00800           0
      1766 MEMB     7        POPC     H18S     HAL3     0.900000E-01   1.00800           0
      1767 MEMB     7        POPC     H18T     HAL3     0.900000E-01   1.00800           0
      1768 MEMB     7        POPC     C33      CTL2    -0.180000       12.0110           0
      1769 MEMB     7        POPC     H3X      HAL2     0.900000E-01   1.00800           0
      1770 MEMB     7        POPC     H3Y      HAL2     0.900000E-01   1.00800           0
      1771 MEMB     7        POPC     C34      CTL2    -0.180000       12.0110           0
      1772 MEMB     7        POPC     H4X      HAL2     0.900000E-01   1.00800           0
      1773 MEMB     7        POPC     H4Y      HAL2     0.900000E-01   1.00800           0
      1774 MEMB     7        POPC     C35      CTL2    -0.180000       12.0110           0
      1775 MEMB     7        POPC     H5X      HAL2     0.900000E-01   1.00800           0
      1776 MEMB     7        POPC     H5Y      HAL2     0.900000E-01   1.00800           0
      1777 MEMB     7        POPC     C36      CTL2    -0.180000       12.0110           0
      1778 MEMB     7        POPC     H6X      HAL2     0.900000E-01   1.00800           0
      1779 MEMB     7        POPC     H6Y      HAL2     0.900000E-01   1.00800           0
      1780 MEMB     7        POPC     C37      CTL2    -0.180000       12.0110           0
      1781 MEMB     7        POPC     H7X      HAL2     0.900000E-01   1.00800           0
      1782 MEMB     7        POPC     H7Y      HAL2     0.900000E-01   1.00800           0
      1783 MEMB     7        POPC     C38      CTL2    -0.180000       12.0110           0
      1784 MEMB     7        POPC     H8X      HAL2     0.900000E-01   1.00800           0
      1785 MEMB     7        POPC     H8Y      HAL2     0.900000E-01   1.00800           0
      1786 MEMB     7        POPC     C39      CTL2    -0.180000       12.0110           0
      1787 MEMB     7        POPC     H9X      HAL2     0.900000E-01   1.00800           0
      1788 MEMB     7        POPC     H9Y      HAL2     0.900000E-01   1.00800           0
      1789 MEMB     7        POPC     C310     CTL2    -0.180000       12.0110           0
      1790 MEMB     7        POPC     H10X     HAL2     0.900000E-01   1.00800           0
      1791 MEMB     7        POPC     H10Y     HAL2     0.900000E-01   1.00800           0
      1792 MEMB     7        POPC     C311     CTL2    -0.180000       12.0110           0
      1793 MEMB     7        POPC     H11X     HAL2     0.900000E-01   1.00800           0
      1794 MEMB     7        POPC     H11Y     HAL2     0.900000E-01   1.00800           0
      1795 MEMB     7        POPC     C312     CTL2    -0.180000       12.0110           0
      1796 MEMB     7        POPC     H12X     HAL2     0.900000E-01   1.00800           0
      1797 MEMB     7        POPC     H12Y     HAL2     0.900000E-01   1.00800           0
      1798 MEMB     7        POPC     C313     CTL2    -0.180000       12.0110           0
      1799 MEMB     7        POPC     H13X     HAL2     0.900000E-01   1.00800           0
      1800 MEMB     7        POPC     H13Y     HAL2     0.900000E-01   1.00800           0
      1801 MEMB     7        POPC     C314     CTL2    -0.180000       12.0110           0
      1802 MEMB     7        POPC     H14X     HAL2     0.900000E-01   1.00800           0
      1803 MEMB     7        POPC     H14Y     HAL2     0.900000E-01   1.00800           0
      1804 MEMB     7        POPC     C315     CTL2    -0.180000       12.0110           0
      1805 MEMB     7        POPC     H15X     HAL2     0.900000E-01   1.00800           0
      1806 MEMB     7        POPC     H15Y     HAL2     0.900000E-01   1.00800           0
      1807 MEMB     7        POPC     C316     CTL3    -0.270000       12.0110           0
      1808 MEMB     7        POPC     H16X     HAL3     0.900000E-01   1.00800           0
      1809 MEMB     7        POPC     H16Y     HAL3     0.900000E-01   1.00800           0
      1810 MEMB     7        POPC     H16Z     HAL3     0.900000E-01   1.00800           0
      1811 MEMB     8        POPC     N        NTL     -0.600000       14.0070           0
      1812 MEMB     8        POPC     C12      CTL2    -0.100000       12.0110           0
      1813 MEMB     8        POPC     H12A     HL       0.250000       1.00800           0
      1814 MEMB     8        POPC     H12B     HL       0.250000       1.00800           0
      1815 MEMB     8        POPC     C13      CTL5    -0.350000       12.0110           0
      1816 MEMB     8        POPC     H13A     HL       0.250000       1.00800           0
      1817 MEMB     8        POPC     H13B     HL       0.250000       1.00800           0
      1818 MEMB     8        POPC     H13C     HL       0.250000       1.00800           0
      1819 MEMB     8        POPC     C14      CTL5    -0.350000       12.0110           0
      1820 MEMB     8        POPC     H14A     HL       0.250000       1.00800           0
      1821 MEMB     8        POPC     H14B     HL       0.250000       1.00800           0
      1822 MEMB     8        POPC     H14C     HL       0.250000       1.00800           0
      1823 MEMB     8        POPC     C15      CTL5    -0.350000       12.0110           0
      1824 MEMB     8        POPC     H15A     HL       0.250000       1.00800           0
      1825 MEMB     8        POPC     H15B     HL       0.250000       1.00800           0
      1826 MEMB     8        POPC     H15C     HL       0.250000       1.00800           0
      1827 MEMB     8        POPC     C11      CTL2    -0.800000E-01   12.0110           0
      1828 MEMB     8        POPC     H11A     HAL2     0.900000E-01   1.00800           0
      1829 MEMB     8        POPC     H11B     HAL2     0.900000E-01   1.00800           0
      1830 MEMB     8        POPC     P        PL        1.50000       30.9740           0
      1831 MEMB     8        POPC     O13      O2L     -0.780000       15.9994           0
      1832 MEMB     8        POPC     O14      O2L     -0.780000       15.9994           0
      1833 MEMB     8        POPC     O12      OSLP    -0.570000       15.9994           0
      1834 MEMB     8        POPC     O11      OSLP    -0.570000       15.9994           0
      1835 MEMB     8        POPC     C1       CTL2    -0.800000E-01   12.0110           0
      1836 MEMB     8        POPC     HA       HAL2     0.900000E-01   1.00800           0
      1837 MEMB     8        POPC     HB       HAL2     0.900000E-01   1.00800           0
      1838 MEMB     8        POPC     C2       CTL1     0.170000       12.0110           0
      1839 MEMB     8        POPC     HS       HAL1     0.900000E-01   1.00800           0
      1840 MEMB     8        POPC     O21      OSL     -0.490000       15.9994           0
      1841 MEMB     8        POPC     C21      CL       0.900000       12.0110           0
      1842 MEMB     8        POPC     O22      OBL     -0.630000       15.9994           0
      1843 MEMB     8        POPC     C22      CTL2    -0.220000       12.0110           0
      1844 MEMB     8        POPC     H2R      HAL2     0.900000E-01   1.00800           0
      1845 MEMB     8        POPC     H2S      HAL2     0.900000E-01   1.00800           0
      1846 MEMB     8        POPC     C3       CTL2     0.800000E-01   12.0110           0
      1847 MEMB     8        POPC     HX       HAL2     0.900000E-01   1.00800           0
      1848 MEMB     8        POPC     HY       HAL2     0.900000E-01   1.00800           0
      1849 MEMB     8        POPC     O31      OSL     -0.490000       15.9994           0
      1850 MEMB     8        POPC     C31      CL       0.900000       12.0110           0
      1851 MEMB     8        POPC     O32      OBL     -0.630000       15.9994           0
      1852 MEMB     8        POPC     C32      CTL2    -0.220000       12.0110           0
      1853 MEMB     8        POPC     H2X      HAL2     0.900000E-01   1.00800           0
      1854 MEMB     8        POPC     H2Y      HAL2     0.900000E-01   1.00800           0
      1855 MEMB     8        POPC     C23      CTL2    -0.180000       12.0110           0
      1856 MEMB     8        POPC     H3R      HAL2     0.900000E-01   1.00800           0
      1857 MEMB     8        POPC     H3S      HAL2     0.900000E-01   1.00800           0
      1858 MEMB     8        POPC     C24      CTL2    -0.180000       12.0110           0
      1859 MEMB     8        POPC     H4R      HAL2     0.900000E-01   1.00800           0
      1860 MEMB     8        POPC     H4S      HAL2     0.900000E-01   1.00800           0
      1861 MEMB     8        POPC     C25      CTL2    -0.180000       12.0110           0
      1862 MEMB     8        POPC     H5R      HAL2     0.900000E-01   1.00800           0
      1863 MEMB     8        POPC     H5S      HAL2     0.900000E-01   1.00800           0
      1864 MEMB     8        POPC     C26      CTL2    -0.180000       12.0110           0
      1865 MEMB     8        POPC     H6R      HAL2     0.900000E-01   1.00800           0
      1866 MEMB     8        POPC     H6S      HAL2     0.900000E-01   1.00800           0
      1867 MEMB     8        POPC     C27      CTL2    -0.180000       12.0110           0
      1868 MEMB     8        POPC     H7R      HAL2     0.900000E-01   1.00800           0
      1869 MEMB     8        POPC     H7S      HAL2     0.900000E-01   1.00800           0
      1870 MEMB     8        POPC     C28      CTL2    -0.180000       12.0110           0
      1871 MEMB     8        POPC     H8R      HAL2     0.900000E-01   1.00800           0
      1872 MEMB     8        POPC     H8S      HAL2     0.900000E-01   1.00800           0
      1873 MEMB     8        POPC     C29      CEL1    -0.150000       12.0110           0
      1874 MEMB     8        POPC     H91      HEL1     0.150000       1.00800           0
      1875 MEMB     8        POPC     C210     CEL1    -0.150000       12.0110           0
      1876 MEMB     8        POPC     H101     HEL1     0.150000       1.00800           0
      1877 MEMB     8        POPC     C211     CTL2    -0.180000       12.0110           0
      1878 MEMB     8        POPC     H11R     HAL2     0.900000E-01   1.00800           0
      1879 MEMB     8        POPC     H11S     HAL2     0.900000E-01   1.00800           0
      1880 MEMB     8        POPC     C212     CTL2    -0.180000       12.0110           0
      1881 MEMB     8        POPC     H12R     HAL2     0.900000E-01   1.00800           0
      1882 MEMB     8        POPC     H12S     HAL2     0.900000E-01   1.00800           0
      1883 MEMB     8        POPC     C213     CTL2    -0.180000       12.0110           0
      1884 MEMB     8        POPC     H13R     HAL2     0.900000E-01   1.00800           0
      1885 MEMB     8        POPC     H13S     HAL2     0.900000E-01   1.00800           0
      1886 MEMB     8        POPC     C214     CTL2    -0.180000       12.0110           0
      1887 MEMB     8        POPC     H14R     HAL2     0.900000E-01   1.00800           0
      1888 MEMB     8        POPC     H14S     HAL2     0.900000E-01   1.00800           0
      1889 MEMB     8        POPC     C215     CTL2    -0.180000       12.0110           0
      1890 MEMB     8        POPC     H15R     HAL2     0.900000E-01   1.00800           0
      1891 MEMB     8        POPC     H15S     HAL2     0.900000E-01   1.00800           0
      1892 MEMB     8        POPC     C216     CTL2    -0.180000       12.0110           0
      1893 MEMB     8        POPC     H16R     HAL2     0.900000E-01   1.00800           0
      1894 MEMB     8        POPC     H16S     HAL2     0.900000E-01   1.00800           0
      1895 MEMB     8        POPC     C217     CTL2    -0.180000       12.0110           0
      1896 MEMB     8        POPC     H17R     HAL2     0.900000E-01   1.00800           0
      1897 MEMB     8        POPC     H17S     HAL2     0.900000E-01   1.00800           0
      1898 MEMB     8        POPC     C218     CTL3    -0.270000       12.0110           0
      1899 MEMB     8        POPC     H18R     HAL3     0.900000E-01   1.00800           0
      1900 MEMB     8        POPC     H18S     HAL3     0.900000E-01   1.00800           0
      1901 MEMB     8        POPC     H18T     HAL3     0.900000E-01   1.00800           0
      1902 MEMB     8        POPC     C33      CTL2    -0.180000       12.0110           0
      1903 MEMB     8        POPC     H3X      HAL2     0.900000E-01   1.00800           0
      1904 MEMB     8        POPC     H3Y      HAL2     0.900000E-01   1.00800           0
      1905 MEMB     8        POPC     C34      CTL2    -0.180000       12.0110           0
      1906 MEMB     8        POPC     H4X      HAL2     0.900000E-01   1.00800           0
      1907 MEMB     8        POPC     H4Y      HAL2     0.900000E-01   1.00800           0
      1908 MEMB     8        POPC     C35      CTL2    -0.180000       12.0110           0
      1909 MEMB     8        POPC     H5X      HAL2     0.900000E-01   1.00800           0
      1910 MEMB     8        POPC     H5Y      HAL2     0.900000E-01   1.00800           0
      1911 MEMB     8        POPC     C36      CTL2    -0.180000       12.0110           0
      1912 MEMB     8        POPC     H6X      HAL2     0.900000E-01   1.00800           0
      1913 MEMB     8        POPC     H6Y      HAL2     0.900000E-01   1.00800           0
      1914 MEMB     8        POPC     C37      CTL2    -0.180000       12.0110           0
      1915 MEMB     8        POPC     H7X      HAL2     0.900000E-01   1.00800           0
      1916 MEMB     8        POPC     H7Y      HAL2     0.900000E-01   1.00800           0
      1917 MEMB     8        POPC     C38      CTL2    -0.180000       12.0110           0
      1918 MEMB     8        POPC     H8X      HAL2     0.900000E-01   1.00800           0
      1919 MEMB     8        POPC     H8Y      HAL2     0.900000E-01   1.00800           0
      1920 MEMB     8        POPC     C39      CTL2    -0.180000       12.0110           0
      1921 MEMB     8        POPC     H9X      HAL2     0.900000E-01   1.00800           0
      1922 MEMB     8        POPC     H9Y      HAL2     0.900000E-01   1.00800           0
      1923 MEMB     8        POPC     C310     CTL2    -0.180000       12.0110           0
      1924 MEMB     8        POPC     H10X     HAL2     0.900000E-01   1.00800           0
      1925 MEMB     8        POPC     H10Y     HAL2     0.900000E-01   1.00800           0
      1926 MEMB     8        POPC     C311     CTL2    -0.180000       12.0110           0
      1927 MEMB     8        POPC     H11X     HAL2     0.900000E-01   1.00800           0
      1928 MEMB     8        POPC     H11Y     HAL2     0.900000E-01   1.00800           0
      1929 MEMB     8        POPC     C312     CTL2    -0.180000       12.0110           0
      1930 MEMB     8        POPC     H12X     HAL2     0.900000E-01   1.00800           0
      1931 MEMB     8        POPC     H12Y     HAL2     0.900000E-01   1.00800           0
      1932 MEMB     8        POPC     C313     CTL2    -0.180000       12.0110           0
      1933 MEMB     8        POPC     H13X     HAL2     0.900000E-01   1.00800           0
      1934 MEMB     8        POPC     H13Y     HAL2     0.900000E-01   1.00800           0
      1935 MEMB     8        POPC     C314     CTL2    -0.180000       12.0110           0
      1936 MEMB     8        POPC     H14X     HAL2     0.900000E-01   1.00800           0
      1937 MEMB     8        POPC     H14Y     HAL2     0.900000E-01   1.00800           0
      1938 MEMB     8        POPC     C315     CTL2    -0.180000       12.0110           0
      1939 MEMB     8        POPC     H15X     HAL2     0.900000E-01   1.00800           0
      1940 MEMB     8        POPC     H15Y     HAL2     0.900000E-01   1.00800           0
      1941 MEMB     8        POPC     C316     CTL3    -0.270000       12.0110           0
      1942 MEMB     8        POPC     H16X     HAL3     0.900000E-01   1.00800           0
      1943 MEMB     8        POPC     H16Y     HAL3     0.900000E-01   1.00800           0
      1944 MEMB     8        POPC     H16Z     HAL3     0.900000E-01   1.00800           0
      1945 MEMB     9        POPC     N        NTL     -0.600000       14.0070           0
      1946 MEMB     9        POPC     C12      CTL2    -0.100000       12.0110           0
      1947 MEMB     9        POPC     H12A     HL       0.250000       1.00800           0
      1948 MEMB     9        POPC     H12B     HL       0.250000       1.00800           0
      1949 MEMB     9        POPC     C13      CTL5    -0.350000       12.0110           0
      1950 MEMB     9        POPC     H13A     HL       0.250000       1.00800           0
      1951 MEMB     9        POPC     H13B     HL       0.250000       1.00800           0
      1952 MEMB     9        POPC     H13C     HL       0.250000       1.00800           0
      1953 MEMB     9        POPC     C14      CTL5    -0.350000       12.0110           0
      1954 MEMB     9        POPC     H14A     HL       0.250000       1.00800           0
      1955 MEMB     9        POPC     H14B     HL       0.250000       1.00800           0
      1956 MEMB     9        POPC     H14C     HL       0.250000       1.00800           0
      1957 MEMB     9        POPC     C15      CTL5    -0.350000       12.0110           0
      1958 MEMB     9        POPC     H15A     HL       0.250000       1.00800           0
      1959 MEMB     9        POPC     H15B     HL       0.250000       1.00800           0
      1960 MEMB     9        POPC     H15C     HL       0.250000       1.00800           0
      1961 MEMB     9        POPC     C11      CTL2    -0.800000E-01   12.0110           0
      1962 MEMB     9        POPC     H11A     HAL2     0.900000E-01   1.00800           0
      1963 MEMB     9        POPC     H11B     HAL2     0.900000E-01   1.00800           0
      1964 MEMB     9        POPC     P        PL        1.50000       30.9740           0
      1965 MEMB     9        POPC     O13      O2L     -0.780000       15.9994           0
      1966 MEMB     9        POPC     O14      O2L     -0.780000       15.9994           0
      1967 MEMB     9        POPC     O12      OSLP    -0.570000       15.9994           0
      1968 MEMB     9        POPC     O11      OSLP    -0.570000       15.9994           0
      1969 MEMB     9        POPC     C1       CTL2    -0.800000E-01   12.0110           0
      1970 MEMB     9        POPC     HA       HAL2     0.900000E-01   1.00800           0
      1971 MEMB     9        POPC     HB       HAL2     0.900000E-01   1.00800           0
      1972 MEMB     9        POPC     C2       CTL1     0.170000       12.0110           0
      1973 MEMB     9        POPC     HS       HAL1     0.900000E-01   1.00800           0
      1974 MEMB     9        POPC     O21      OSL     -0.490000       15.9994           0
      1975 MEMB     9        POPC     C21      CL       0.900000       12.0110           0
      1976 MEMB     9        POPC     O22      OBL     -0.630000       15.9994           0
      1977 MEMB     9        POPC     C22      CTL2    -0.220000       12.0110           0
      1978 MEMB     9        POPC     H2R      HAL2     0.900000E-01   1.00800           0
      1979 MEMB     9        POPC     H2S      HAL2     0.900000E-01   1.00800           0
      1980 MEMB     9        POPC     C3       CTL2     0.800000E-01   12.0110           0
      1981 MEMB     9        POPC     HX       HAL2     0.900000E-01   1.00800           0
      1982 MEMB     9        POPC     HY       HAL2     0.900000E-01   1.00800           0
      1983 MEMB     9        POPC     O31      OSL     -0.490000       15.9994           0
      1984 MEMB     9        POPC     C31      CL       0.900000       12.0110           0
      1985 MEMB     9        POPC     O32      OBL     -0.630000       15.9994           0
      1986 MEMB     9        POPC     C32      CTL2    -0.220000       12.0110           0
      1987 MEMB     9        POPC     H2X      HAL2     0.900000E-01   1.00800           0
      1988 MEMB     9        POPC     H2Y      HAL2     0.900000E-01   1.00800           0
      1989 MEMB     9        POPC     C23      CTL2    -0.180000       12.0110           0
      1990 MEMB     9        POPC     H3R      HAL2     0.900000E-01   1.00800           0
      1991 MEMB     9        POPC     H3S      HAL2     0.900000E-01   1.00800           0
      1992 MEMB     9        POPC     C24      CTL2    -0.180000       12.0110           0
      1993 MEMB     9        POPC     H4R      HAL2     0.900000E-01   1.00800           0
      1994 MEMB     9        POPC     H4S      HAL2     0.900000E-01   1.00800           0
      1995 MEMB     9        POPC     C25      CTL2    -0.180000       12.0110           0
      1996 MEMB     9        POPC     H5R      HAL2     0.900000E-01   1.00800           0
      1997 MEMB     9        POPC     H5S      HAL2     0.900000E-01   1.00800           0
      1998 MEMB     9        POPC     C26      CTL2    -0.180000       12.0110           0
      1999 MEMB     9        POPC     H6R      HAL2     0.900000E-01   1.00800           0
      2000 MEMB     9        POPC     H6S      HAL2     0.900000E-01   1.00800           0
      2001 MEMB     9        POPC     C27      CTL2    -0.180000       12.0110           0
      2002 MEMB     9        POPC     H7R      HAL2     0.900000E-01   1.00800           0
      2003 MEMB     9        POPC     H7S      HAL2     0.900000E-01   1.00800           0
      2004 MEMB     9        POPC     C28      CTL2    -0.180000       12.0110           0
      2005 MEMB     9        POPC     H8R      HAL2     0.900000E-01   1.00800           0
      2006 MEMB     9        POPC     H8S      HAL2     0.900000E-01   1.00800           0
      2007 MEMB     9        POPC     C29      CEL1    -0.150000       12.0110           0
      2008 MEMB     9        POPC     H91      HEL1     0.150000       1.00800           0
      2009 MEMB     9        POPC     C210     CEL1    -0.150000       12.0110           0
      2010 MEMB     9        POPC     H101     HEL1     0.150000       1.00800           0
      2011 MEMB     9        POPC     C211     CTL2    -0.180000       12.0110           0
      2012 MEMB     9        POPC     H11R     HAL2     0.900000E-01   1.00800           0
      2013 MEMB     9        POPC     H11S     HAL2     0.900000E-01   1.00800           0
      2014 MEMB     9        POPC     C212     CTL2    -0.180000       12.0110           0
      2015 MEMB     9        POPC     H12R     HAL2     0.900000E-01   1.00800           0
      2016 MEMB     9        POPC     H12S     HAL2     0.900000E-01   1.00800           0
      2017 MEMB     9        POPC     C213     CTL2    -0.180000       12.0110           0
      2018 MEMB     9        POPC     H13R     HAL2     0.900000E-01   1.00800           0
      2019 MEMB     9        POPC     H13S     HAL2     0.900000E-01   1.00800           0
      2020 MEMB     9        POPC     C214     CTL2    -0.180000       12.0110           0
      2021 MEMB     9        POPC     H14R     HAL2     0.900000E-01   1.00800           0
      2022 MEMB     9        POPC     H14S     HAL2     0.900000E-01   1.00800           0
      2023 MEMB     9        POPC     C215     CTL2    -0.180000       12.0110           0
      2024 MEMB     9        POPC     H15R     HAL2     0.900000E-01   1.00800           0
      2025 MEMB     9        POPC     H15S     HAL2     0.900000E-01   1.00800           0
      2026 MEMB     9        POPC     C216     CTL2    -0.180000       12.0110           0
      2027 MEMB     9        POPC     H16R     HAL2     0.900000E-01   1.00800           0
      2028 MEMB     9        POPC     H16S     HAL2     0.900000E-01   1.00800           0
      2029 MEMB     9        POPC     C217     CTL2    -0.180000       12.0110           0
      2030 MEMB     9        POPC     H17R     HAL2     0.900000E-01   1.00800           0
      2031 MEMB     9        POPC     H17S     HAL2     0.900000E-01   1.00800           0
      2032 MEMB     9        POPC     C218     CTL3    -0.270000       12.0110           0
      2033 MEMB     9        POPC     H18R     HAL3     0.900000E-01   1.00800           0
      2034 MEMB     9        POPC     H18S     HAL3     0.900000E-01   1.00800           0
      2035 MEMB     9        POPC     H18T     HAL3     0.900000E-01   1.00800           0
      2036 MEMB     9        POPC     C33      CTL2    -0.180000       12.0110           0
      2037 MEMB     9        POPC     H3X      HAL2     0.900000E-01   1.00800           0
      2038 MEMB     9        POPC     H3Y      HAL2     0.900000E-01   1.00800           0
      2039 MEMB     9        POPC     C34      CTL2    -0.180000       12.0110           0
      2040 MEMB     9        POPC     H4X      HAL2     0.900000E-01   1.00800           0
      2041 MEMB     9        POPC     H4Y      HAL2     0.900000E-01   1.00800           0
      2042 MEMB     9        POPC     C35      CTL2    -0.180000       12.0110           0
      2043 MEMB     9        POPC     H5X      HAL2     0.900000E-01   1.00800           0
      2044 MEMB     9        POPC     H5Y      HAL2     0.900000E-01   1.00800           0
      2045 MEMB     9        POPC     C36      CTL2    -0.180000       12.0110           0
      2046 MEMB     9        POPC     H6X      HAL2     0.900000E-01   1.00800           0
      2047 MEMB     9        POPC     H6Y      HAL2     0.900000E-01   1.00800           0
      2048 MEMB     9        POPC     C37      CTL2    -0.180000       12.0110           0
      2049 MEMB     9        POPC     H7X      HAL2     0.900000E-01   1.00800           0
      2050 MEMB     9        POPC     H7Y      HAL2     0.900000E-01   1.00800           0
      2051 MEMB     9        POPC     C38      CTL2    -0.180000       12.0110           0
      2052 MEMB     9        POPC     H8X      HAL2     0.900000E-01   1.00800           0
      2053 MEMB     9        POPC     H8Y      HAL2     0.900000E-01   1.00800           0
      2054 MEMB     9        POPC     C39      CTL2    -0.180000       12.0110           0
      2055 MEMB     9        POPC     H9X      HAL2     0.900000E-01   1.00800           0
      2056 MEMB     9        POPC     H9Y      HAL2     0.900000E-01   1.00800           0
      2057 MEMB     9        POPC     C310     CTL2    -0.180000       12.0110           0
      2058 MEMB     9        POPC     H10X     HAL2     0.900000E-01   1.00800           0
      2059 MEMB     9        POPC     H10Y     HAL2     0.900000E-01   1.00800           0
      2060 MEMB     9        POPC     C311     CTL2    -0.180000       12.0110           0
      2061 MEMB     9        POPC     H11X     HAL2     0.900000E-01   1.00800           0
      2062 MEMB     9        POPC     H11Y     HAL2     0.900000E-01   1.00800           0
      2063 MEMB     9        POPC     C312     CTL2    -0.180000       12.0110           0
      2064 MEMB     9        POPC     H12X     HAL2     0.900000E-01   1.00800           0
      2065 MEMB     9        POPC     H12Y     HAL2     0.900000E-01   1.00800           0
      2066 MEMB     9        POPC     C313     CTL2    -0.180000       12.0110           0
      2067 MEMB     9        POPC     H13X     HAL2     0.900000E-01   1.00800           0
      2068 MEMB     9        POPC     H13Y     HAL2     0.900000E-01   1.00800           0
      2069 MEMB     9        POPC     C314     CTL2    -0.180000       12.0110           0
      2070 MEMB     9        POPC     H14X     HAL2     0.900000E-01   1.00800           0
      2071 MEMB     9        POPC     H14Y     HAL2     0.900000E-01   1.00800           0
      2072 MEMB     9        POPC     C315     CTL2    -0.180000       12.0110           0
      2073 MEMB     9        POPC     H15X     HAL2     0.900000E-01   1.00800           0
      2074 MEMB     9        POPC     H15Y     HAL2     0.900000E-01   1.00800           0
      2075 MEMB     9        POPC     C316     CTL3    -0.270000       12.0110           0
      2076 MEMB     9        POPC     H16X     HAL3     0.900000E-01   1.00800           0
      2077 MEMB     9        POPC     H16Y     HAL3     0.900000E-01   1.00800           0
      2078 MEMB     9        POPC     H16Z     HAL3     0.900000E-01   1.00800           0
      2079 MEMB     10       POPC     N        NTL     -0.600000       14.0070           0
      2080 MEMB     10       POPC     C12      CTL2    -0.100000       12.0110           0
      2081 MEMB     10       POPC     H12A     HL       0.250000       1.00800           0
      2082 MEMB     10       POPC     H12B     HL       0.250000       1.00800           0
      2083 MEMB     10       POPC     C13      CTL5    -0.350000       12.0110           0
      2084 MEMB     10       POPC     H13A     HL       0.250000       1.00800           0
      2085 MEMB     10       POPC     H13B     HL       0.250000       1.00800           0
      2086 MEMB     10       POPC     H13C     HL       0.250000       1.00800           0
      2087 MEMB     10       POPC     C14      CTL5    -0.350000       12.0110           0
      2088 MEMB     10       POPC     H14A     HL       0.250000       1.00800           0
      2089 MEMB     10       POPC     H14B     HL       0.250000       1.00800           0
      2090 MEMB     10       POPC     H14C     HL       0.250000       1.00800           0
      2091 MEMB     10       POPC     C15      CTL5    -0.350000       12.0110           0
      2092 MEMB     10       POPC     H15A     HL       0.250000       1.00800           0
      2093 MEMB     10       POPC     H15B     HL       0.250000       1.00800           0
      2094 MEMB     10       POPC     H15C     HL       0.250000       1.00800           0
      2095 MEMB     10       POPC     C11      CTL2    -0.800000E-01   12.0110           0
      2096 MEMB     10       POPC     H11A     HAL2     0.900000E-01   1.00800           0
      2097 MEMB     10       POPC     H11B     HAL2     0.900000E-01   1.00800           0
      2098 MEMB     10       POPC     P        PL        1.50000       30.9740           0
      2099 MEMB     10       POPC     O13      O2L     -0.780000       15.9994           0
      2100 MEMB     10       POPC     O14      O2L     -0.780000       15.9994           0
      2101 MEMB     10       POPC     O12      OSLP    -0.570000       15.9994           0
      2102 MEMB     10       POPC     O11      OSLP    -0.570000       15.9994           0
      2103 MEMB     10       POPC     C1       CTL2    -0.800000E-01   12.0110           0
      2104 MEMB     10       POPC     HA       HAL2     0.900000E-01   1.00800           0
      2105 MEMB     10       POPC     HB       HAL2     0.900000E-01   1.00800           0
      2106 MEMB     10       POPC     C2       CTL1     0.170000       12.0110           0
      2107 MEMB     10       POPC     HS       HAL1     0.900000E-01   1.00800           0
      2108 MEMB     10       POPC     O21      OSL     -0.490000       15.9994           0
      2109 MEMB     10       POPC     C21      CL       0.900000       12.0110           0
      2110 MEMB     10       POPC     O22      OBL     -0.630000       15.9994           0
      2111 MEMB     10       POPC     C22      CTL2    -0.220000       12.0110           0
      2112 MEMB     10       POPC     H2R      HAL2     0.900000E-01   1.00800           0
      2113 MEMB     10       POPC     H2S      HAL2     0.900000E-01   1.00800           0
      2114 MEMB     10       POPC     C3       CTL2     0.800000E-01   12.0110           0
      2115 MEMB     10       POPC     HX       HAL2     0.900000E-01   1.00800           0
      2116 MEMB     10       POPC     HY       HAL2     0.900000E-01   1.00800           0
      2117 MEMB     10       POPC     O31      OSL     -0.490000       15.9994           0
      2118 MEMB     10       POPC     C31      CL       0.900000       12.0110           0
      2119 MEMB     10       POPC     O32      OBL     -0.630000       15.9994           0
      2120 MEMB     10       POPC     C32      CTL2    -0.220000       12.0110           0
      2121 MEMB     10       POPC     H2X      HAL2     0.900000E-01   1.00800           0
      2122 MEMB     10       POPC     H2Y      HAL2     0.900000E-01   1.00800           0
      2123 MEMB     10       POPC     C23      CTL2    -0.180000       12.0110           0
      2124 MEMB     10       POPC     H3R      HAL2     0.900000E-01   1.00800           0
      2125 MEMB     10       POPC     H3S      HAL2     0.900000E-01   1.00800           0
      2126 MEMB     10       POPC     C24      CTL2    -0.180000       12.0110           0
      2127 MEMB     10       POPC     H4R      HAL2     0.900000E-01   1.00800           0
      2128 MEMB     10       POPC     H4S      HAL2     0.900000E-01   1.00800           0
      2129 MEMB     10       POPC     C25      CTL2    -0.180000       12.0110           0
      2130 MEMB     10       POPC     H5R      HAL2     0.900000E-01   1.00800           0
      2131 MEMB     10       POPC     H5S      HAL2     0.900000E-01   1.00800           0
      2132 MEMB     10       POPC     C26      CTL2    -0.180000       12.0110           0
      2133 MEMB     10       POPC     H6R      HAL2     0.900000E-01   1.00800           0
      2134 MEMB     10       POPC     H6S      HAL2     0.900000E-01   1.00800           0
      2135 MEMB     10       POPC     C27      CTL2    -0.180000       12.0110           0
      2136 MEMB     10       POPC     H7R      HAL2     0.900000E-01   1.00800           0
      2137 MEMB     10       POPC     H7S      HAL2     0.900000E-01   1.00800           0
      2138 MEMB     10       POPC     C28      CTL2    -0.180000       12.0110           0
      2139 MEMB     10       POPC     H8R      HAL2     0.900000E-01   1.00800           0
      2140 MEMB     10       POPC     H8S      HAL2     0.900000E-01   1.00800           0
      2141 MEMB     10       POPC     C29      CEL1    -0.150000       12.0110           0
      2142 MEMB     10       POPC     H91      HEL1     0.150000       1.00800           0
      2143 MEMB     10       POPC     C210     CEL1    -0.150000       12.0110           0
      2144 MEMB     10       POPC     H101     HEL1     0.150000       1.00800           0
      2145 MEMB     10       POPC     C211     CTL2    -0.180000       12.0110           0
      2146 MEMB     10       POPC     H11R     HAL2     0.900000E-01   1.00800           0
      2147 MEMB     10       POPC     H11S     HAL2     0.900000E-01   1.00800           0
      2148 MEMB     10       POPC     C212     CTL2    -0.180000       12.0110           0
      2149 MEMB     10       POPC     H12R     HAL2     0.900000E-01   1.00800           0
      2150 MEMB     10       POPC     H12S     HAL2     0.900000E-01   1.00800           0
      2151 MEMB     10       POPC     C213     CTL2    -0.180000       12.0110           0
      2152 MEMB     10       POPC     H13R     HAL2     0.900000E-01   1.00800           0
      2153 MEMB     10       POPC     H13S     HAL2     0.900000E-01   1.00800           0
      2154 MEMB     10       POPC     C214     CTL2    -0.180000       12.0110           0
      2155 MEMB     10       POPC     H14R     HAL2     0.900000E-01   1.00800           0
      2156 MEMB     10       POPC     H14S     HAL2     0.900000E-01   1.00800           0
      2157 MEMB     10       POPC     C215     CTL2    -0.180000       12.0110           0
      2158 MEMB     10       POPC     H15R     HAL2     0.900000E-01   1.00800           0
      2159 MEMB     10       POPC     H15S     HAL2     0.900000E-01   1.00800           0
      2160 MEMB     10       POPC     C216     CTL2    -0.180000       12.0110           0
      2161 MEMB     10       POPC     H16R     HAL2     0.900000E-01   1.00800           0
      2162 MEMB     10       POPC     H16S     HAL2     0.900000E-01   1.00800           0
      2163 MEMB     10       POPC     C217     CTL2    -0.180000       12.0110           0
      2164 MEMB     10       POPC     H17R     HAL2     0.900000E-01   1.00800           0
      2165 MEMB     10       POPC     H17S     HAL2     0.900000E-01   1.00800           0
      2166 MEMB     10       POPC     C218     CTL3    -0.270000       12.0110           0
      2167 MEMB     10       POPC     H18R     HAL3     0.900000E-01   1.00800           0
      2168 MEMB     10       POPC     H18S     HAL3     0.900000E-01   1.00800           0
      2169 MEMB     10       POPC     H18T     HAL3     0.900000E-01   1.00800           0
      2170 MEMB     10       POPC     C33      CTL2    -0.180000       12.0110           0
      2171 MEMB     10       POPC     H3X      HAL2     0.900000E-01   1.00800           0
      2172 MEMB     10       POPC     H3Y      HAL2     0.900000E-01   1.00800           0
      2173 MEMB     10       POPC     C34      CTL2    -0.180000       12.0110           0
      2174 MEMB     10       POPC     H4X      HAL2     0.900000E-01   1.00800           0
      2175 MEMB     10       POPC     H4Y      HAL2     0.900000E-01   1.00800           0
      2176 MEMB     10       POPC     C35      CTL2    -0.180000       12.0110           0
      2177 MEMB     10       POPC     H5X      HAL2     0.900000E-01   1.00800           0
      2178 MEMB     10       POPC     H5Y      HAL2     0.900000E-01   1.00800           0
      2179 MEMB     10       POPC     C36      CTL2    -0.180000       12.0110           0
      2180 MEMB     10       POPC     H6X      HAL2     0.900000E-01   1.00800           0
      2181 MEMB     10       POPC     H6Y      HAL2     0.900000E-01   1.00800           0
      2182 MEMB     10       POPC     C37      CTL2    -0.180000       12.0110           0
      2183 MEMB     10       POPC     H7X      HAL2     0.900000E-01   1.00800           0
      2184 MEMB     10       POPC     H7Y      HAL2     0.900000E-01   1.00800           0
      2185 MEMB     10       POPC     C38      CTL2    -0.180000       12.0110           0
      2186 MEMB     10       POPC     H8X      HAL2     0.900000E-01   1.00800           0
      2187 MEMB     10       POPC     H8Y      HAL2     0.900000E-01   1.00800           0
      2188 MEMB     10       POPC     C39      CTL2    -0.180000       12.0110           0
      2189 MEMB     10       POPC     H9X      HAL2     0.900000E-01   1.00800           0
      2190 MEMB     10       POPC     H9Y      HAL2     0.900000E-01   1.00800           0
      2191 MEMB     10       POPC     C310     CTL2    -0.180000       12.0110           0
      2192 MEMB     10       POPC     H10X     HAL2     0.900000E-01   1.00800           0
      2193 MEMB     10       POPC     H10Y     HAL2     0.900000E-01   1.00800           0
      2194 MEMB     10       POPC     C311     CTL2    -0.180000       12.0110           0
      2195 MEMB     10       POPC     H11X     HAL2     0.900000E-01   1.00800           0
      2196 MEMB     10       POPC     H11Y     HAL2     0.900000E-01   1.00800           0
      2197 MEMB     10       POPC     C312     CTL2    -0.180000       12.0110           0
      2198 MEMB     10       POPC     H12X     HAL2     0.900000E-01   1.00800           0
      2199 MEMB     10       POPC     H12Y     HAL2     0.900000E-01   1.00800           0
      2200 MEMB     10       POPC     C313     CTL2    -0.180000       12.0110           0
      2201 MEMB     10       POPC     H13X     HAL2     0.900000E-01   1.00800           0
      2202 MEMB     10       POPC     H13Y     HAL2     0.900000E-01   1.00800           0
      2203 MEMB     10       POPC     C314     CTL2    -0.180000       12.0110           0
      2204 MEMB     10       POPC     H14X     HAL2     0.900000E-01   1.00800           0
      2205 MEMB     10       POPC     H14Y     HAL2     0.900000E-01   1.00800           0
      2206 MEMB     10       POPC     C315     CTL2    -0.180000       12.0110           0
      2207 MEMB     10       POPC     H15X     HAL2     0.900000E-01   1.00800           0
      2208 MEMB     10       POPC     H15Y     HAL2     0.900000E-01   1.00800           0
      2209 MEMB     10       POPC     C316     CTL3    -0.270000       12.0110           0
      2210 MEMB     10       POPC     H16X     HAL3     0.900000E-01   1.00800           0
      2211 MEMB     10       POPC     H16Y     HAL3     0.900000E-01   1.00800           0
      2212 MEMB     10       POPC     H16Z     HAL3     0.900000E-01   1.00800           0
      2213 MEMB     11       POPC     N        NTL     -0.600000       14.0070           0
      2214 MEMB     11       POPC     C12      CTL2    -0.100000       12.0110           0
      2215 MEMB     11       POPC     H12A     HL       0.250000       1.00800           0
      2216 MEMB     11       POPC     H12B     HL       0.250000       1.00800           0
      2217 MEMB     11       POPC     C13      CTL5    -0.350000       12.0110           0
      2218 MEMB     11       POPC     H13A     HL       0.250000       1.00800           0
      2219 MEMB     11       POPC     H13B     HL       0.250000       1.00800           0
      2220 MEMB     11       POPC     H13C     HL       0.250000       1.00800           0
      2221 MEMB     11       POPC     C14      CTL5    -0.350000       12.0110           0
      2222 MEMB     11       POPC     H14A     HL       0.250000       1.00800           0
      2223 MEMB     11       POPC     H14B     HL       0.250000       1.00800           0
      2224 MEMB     11       POPC     H14C     HL       0.250000       1.00800           0
      2225 MEMB     11       POPC     C15      CTL5    -0.350000       12.0110           0
      2226 MEMB     11       POPC     H15A     HL       0.250000       1.00800           0
      2227 MEMB     11       POPC     H15B     HL       0.250000       1.00800           0
      2228 MEMB     11       POPC     H15C     HL       0.250000       1.00800           0
      2229 MEMB     11       POPC     C11      CTL2    -0.800000E-01   12.0110           0
      2230 MEMB     11       POPC     H11A     HAL2     0.900000E-01   1.00800           0
      2231 MEMB     11       POPC     H11B     HAL2     0.900000E-01   1.00800           0
      2232 MEMB     11       POPC     P        PL        1.50000       30.9740           0
      2233 MEMB     11       POPC     O13      O2L     -0.780000       15.9994           0
      2234 MEMB     11       POPC     O14      O2L     -0.780000       15.9994           0
      2235 MEMB     11       POPC     O12      OSLP    -0.570000       15.9994           0
      2236 MEMB     11       POPC     O11      OSLP    -0.570000       15.9994           0
      2237 MEMB     11       POPC     C1       CTL2    -0.800000E-01   12.0110           0
      2238 MEMB     11       POPC     HA       HAL2     0.900000E-01   1.00800           0
      2239 MEMB     11       POPC     HB       HAL2     0.900000E-01   1.00800           0
      2240 MEMB     11       POPC     C2       CTL1     0.170000       12.0110           0
      2241 MEMB     11       POPC     HS       HAL1     0.900000E-01   1.00800           0
      2242 MEMB     11       POPC     O21      OSL     -0.490000       15.9994           0
      2243 MEMB     11       POPC     C21      CL       0.900000       12.0110           0
      2244 MEMB     11       POPC     O22      OBL     -0.630000       15.9994           0
      2245 MEMB     11       POPC     C22      CTL2    -0.220000       12.0110           0
      2246 MEMB     11       POPC     H2R      HAL2     0.900000E-01   1.00800           0
      2247 MEMB     11       POPC     H2S      HAL2     0.900000E-01   1.00800           0
      2248 MEMB     11       POPC     C3       CTL2     0.800000E-01   12.0110           0
      2249 MEMB     11       POPC     HX       HAL2     0.900000E-01   1.00800           0
      2250 MEMB     11       POPC     HY       HAL2     0.900000E-01   1.00800           0
      2251 MEMB     11       POPC     O31      OSL     -0.490000       15.9994           0
      2252 MEMB     11       POPC     C31      CL       0.900000       12.0110           0
      2253 MEMB     11       POPC     O32      OBL     -0.630000       15.9994           0
      2254 MEMB     11       POPC     C32      CTL2    -0.220000       12.0110           0
      2255 MEMB     11       POPC     H2X      HAL2     0.900000E-01   1.00800           0
      2256 MEMB     11       POPC     H2Y      HAL2     0.900000E-01   1.00800           0
      2257 MEMB     11       POPC     C23      CTL2    -0.180000       12.0110           0
      2258 MEMB     11       POPC     H3R      HAL2     0.900000E-01   1.00800           0
      2259 MEMB     11       POPC     H3S      HAL2     0.900000E-01   1.00800           0
      2260 MEMB     11       POPC     C24      CTL2    -0.180000       12.0110           0
      2261 MEMB     11       POPC     H4R      HAL2     0.900000E-01   1.00800           0
      2262 MEMB     11       POPC     H4S      HAL2     0.900000E-01   1.00800           0
      2263 MEMB     11       POPC     C25      CTL2    -0.180000       12.0110           0
      2264 MEMB     11       POPC     H5R      HAL2     0.900000E-01   1.00800           0
      2265 MEMB     11       POPC     H5S      HAL2     0.900000E-01   1.00800           0
      2266 MEMB     11       POPC     C26      CTL2    -0.180000       12.0110           0
      2267 MEMB     11       POPC     H6R      HAL2     0.900000E-01   1.00800           0
      2268 MEMB     11       POPC     H6S      HAL2     0.900000E-01   1.00800           0
      2269 MEMB     11       POPC     C27      CTL2    -0.180000       12.0110           0
      2270 MEMB     11       POPC     H7R      HAL2     0.900000E-01   1.00800           0
      2271 MEMB     11       POPC     H7S      HAL2     0.900000E-01   1.00800           0
      2272 MEMB     11       POPC     C28      CTL2    -0.180000       12.0110           0
      2273 MEMB     11       POPC     H8R      HAL2     0.900000E-01   1.00800           0
      2274 MEMB     11       POPC     H8S      HAL2     0.900000E-01   1.00800           0
      2275 MEMB     11       POPC     C29      CEL1    -0.150000       12.0110           0
      2276 MEMB     11       POPC     H91      HEL1     0.150000       1.00800           0
      2277 MEMB     11       POPC     C210     CEL1    -0.150000       12.0110           0
      2278 MEMB     11       POPC     H101     HEL1     0.150000       1.00800           0
      2279 MEMB     11       POPC     C211     CTL2    -0.180000       12.0110           0
      2280 MEMB     11       POPC     H11R     HAL2     0.900000E-01   1.00800           0
      2281 MEMB     11       POPC     H11S     HAL2     0.900000E-01   1.00800           0
      2282 MEMB     11       POPC     C212     CTL2    -0.180000       12.0110           0
      2283 MEMB     11       POPC     H12R     HAL2     0.900000E-01   1.00800           0
      2284 MEMB     11       POPC     H12S     HAL2     0.900000E-01   1.00800           0
      2285 MEMB     11       POPC     C213     CTL2    -0.180000       12.0110           0
      2286 MEMB     11       POPC     H13R     HAL2     0.900000E-01   1.00800           0
      2287 MEMB     11       POPC     H13S     HAL2     0.900000E-01   1.00800           0
      2288 MEMB     11       POPC     C214     CTL2    -0.180000       12.0110           0
      2289 MEMB     11       POPC     H14R     HAL2     0.900000E-01   1.00800           0
      2290 MEMB     11       POPC     H14S     HAL2     0.900000E-01   1.00800           0
      2291 MEMB     11       POPC     C215     CTL2    -0.180000       12.0110           0
      2292 MEMB     11       POPC     H15R     HAL2     0.900000E-01   1.00800           0
      2293 MEMB     11       POPC     H15S     HAL2     0.900000E-01   1.00800           0
      2294 MEMB     11       POPC     C216     CTL2    -0.180000       12.0110           0
      2295 MEMB     11       POPC     H16R     HAL2     0.900000E-01   1.00800           0
      2296 MEMB     11       POPC     H16S     HAL2     0.900000E-01   1.00800           0
      2297 MEMB     11       POPC     C217     CTL2    -0.180000       12.0110           0
      2298 MEMB     11       POPC     H17R     HAL2     0.900000E-01   1.00800           0
      2299 MEMB     11       POPC     H17S     HAL2     0.900000E-01   1.00800           0
      2300 MEMB     11       POPC     C218     CTL3    -0.270000       12.0110           0
      2301 MEMB     11       POPC     H18R     HAL3     0.900000E-01   1.00800           0
      2302 MEMB     11       POPC     H18S     HAL3     0.900000E-01   1.00800           0
      2303 MEMB     11       POPC     H18T     HAL3     0.900000E-01   1.00800           0
      2304 MEMB     11       POPC     C33      CTL2    -0.180000       12.0110           0
      2305 MEMB     11       POPC     H3X      HAL2     0.900000E-01   1.00800           0
      2306 MEMB     11       POPC     H3Y      HAL2     0.900000E-01   1.00800           0
      2307 MEMB     11       POPC     C34      CTL2    -0.180000       12.0110           0
      2308 MEMB     11       POPC     H4X      HAL2     0.900000E-01   1.00800           0
      2309 MEMB     11       POPC     H4Y      HAL2     0.900000E-01   1.00800           0
      2310 MEMB     11       POPC     C35      CTL2    -0.180000       12.0110           0
      2311 MEMB     11       POPC     H5X      HAL2     0.900000E-01   1.00800           0
      2312 MEMB     11       POPC     H5Y      HAL2     0.900000E-01   1.00800           0
      2313 MEMB     11       POPC     C36      CTL2    -0.180000       12.0110           0
      2314 MEMB     11       POPC     H6X      HAL2     0.900000E-01   1.00800           0
      2315 MEMB     11       POPC     H6Y      HAL2     0.900000E-01   1.00800           0
      2316 MEMB     11       POPC     C37      CTL2    -0.180000       12.0110           0
      2317 MEMB     11       POPC     H7X      HAL2     0.900000E-01   1.00800           0
      2318 MEMB     11       POPC     H7Y      HAL2     0.900000E-01   1.00800           0
      2319 MEMB     11       POPC     C38      CTL2    -0.180000       12.0110           0
      2320 MEMB     11       POPC     H8X      HAL2     0.900000E-01   1.00800           0
      2321 MEMB     11       POPC     H8Y      HAL2     0.900000E-01   1.00800           0
      2322 MEMB     11       POPC     C39      CTL2    -0.180000       12.0110           0
      2323 MEMB     11       POPC     H9X      HAL2     0.900000E-01   1.00800           0
      2324 MEMB     11       POPC     H9Y      HAL2     0.900000E-01   1.00800           0
      2325 MEMB     11       POPC     C310     CTL2    -0.180000       12.0110           0
      2326 MEMB     11       POPC     H10X     HAL2     0.900000E-01   1.00800           0
      2327 MEMB     11       POPC     H10Y     HAL2     0.900000E-01   1.00800           0
      2328 MEMB     11       POPC     C311     CTL2    -0.180000       12.0110           0
      2329 MEMB     11       POPC     H11X     HAL2     0.900000E-01   1.00800           0
      2330 MEMB     11       POPC     H11Y     HAL2     0.900000E-01   1.00800           0
      2331 MEMB     11       POPC     C312     CTL2    -0.180000       12.0110           0
      2332 MEMB     11       POPC     H12X     HAL2     0.900000E-01   1.00800           0
      2333 MEMB     11       POPC     H12Y     HAL2     0.900000E-01   1.00800           0
      2334 MEMB     11       POPC     C313     CTL2    -0.180000       12.0110           0
      2335 MEMB     11       POPC     H13X     HAL2     0.900000E-01   1.00800           0
      2336 MEMB     11       POPC     H13Y     HAL2     0.900000E-01   1.00800           0
      2337 MEMB     11       POPC     C314     CTL2    -0.180000       12.0110           0
      2338 MEMB     11       POPC     H14X     HAL2     0.900000E-01   1.00800           0
      2339 MEMB     11       POPC     H14Y     HAL2     0.900000E-01   1.00800           0
      2340 MEMB     11       POPC     C315     CTL2    -0.180000       12.0110           0
      2341 MEMB     11       POPC     H15X     HAL2     0.900000E-01   1.00800           0
      2342 MEMB     11       POPC     H15Y     HAL2     0.900000E-01   1.00800           0
      2343 MEMB     11       POPC     C316     CTL3    -0.270000       12.0110           0
      2344 MEMB     11       POPC     H16X     HAL3     0.900000E-01   1.00800           0
      2345 MEMB     11       POPC     H16Y     HAL3     0.900000E-01   1.00800           0
      2346 MEMB     11       POPC     H16Z     HAL3     0.900000E-01   1.00800           0
      2347 MEMB     12       POPC     N        NTL     -0.600000       14.0070           0
      2348 MEMB     12       POPC     C12      CTL2    -0.100000       12.0110           0
      2349 MEMB     12       POPC     H12A     HL       0.250000       1.00800           0
      2350 MEMB     12       POPC     H12B     HL       0.250000       1.00800           0
      2351 MEMB     12       POPC     C13      CTL5    -0.350000       12.0110           0
      2352 MEMB     12       POPC     H13A     HL       0.250000       1.00800           0
      2353 MEMB     12       POPC     H13B     HL       0.250000       1.00800           0
      2354 MEMB     12       POPC     H13C     HL       0.250000       1.00800           0
      2355 MEMB     12       POPC     C14      CTL5    -0.350000       12.0110           0
      2356 MEMB     12       POPC     H14A     HL       0.250000       1.00800           0
      2357 MEMB     12       POPC     H14B     HL       0.250000       1.00800           0
      2358 MEMB     12       POPC     H14C     HL       0.250000       1.00800           0
      2359 MEMB     12       POPC     C15      CTL5    -0.350000       12.0110           0
      2360 MEMB     12       POPC     H15A     HL       0.250000       1.00800           0
      2361 MEMB     12       POPC     H15B     HL       0.250000       1.00800           0
      2362 MEMB     12       POPC     H15C     HL       0.250000       1.00800           0
      2363 MEMB     12       POPC     C11      CTL2    -0.800000E-01   12.0110           0
      2364 MEMB     12       POPC     H11A     HAL2     0.900000E-01   1.00800           0
      2365 MEMB     12       POPC     H11B     HAL2     0.900000E-01   1.00800           0
      2366 MEMB     12       POPC     P        PL        1.50000       30.9740           0
      2367 MEMB     12       POPC     O13      O2L     -0.780000       15.9994           0
      2368 MEMB     12       POPC     O14      O2L     -0.780000       15.9994           0
      2369 MEMB     12       POPC     O12      OSLP    -0.570000       15.9994           0
      2370 MEMB     12       POPC     O11      OSLP    -0.570000       15.9994           0
      2371 MEMB     12       POPC     C1       CTL2    -0.800000E-01   12.0110           0
      2372 MEMB     12       POPC     HA       HAL2     0.900000E-01   1.00800           0
      2373 MEMB     12       POPC     HB       HAL2     0.900000E-01   1.00800           0
      2374 MEMB     12       POPC     C2       CTL1     0.170000       12.0110           0
      2375 MEMB     12       POPC     HS       HAL1     0.900000E-01   1.00800           0
      2376 MEMB     12       POPC     O21      OSL     -0.490000       15.9994           0
      2377 MEMB     12       POPC     C21      CL       0.900000       12.0110           0
      2378 MEMB     12       POPC     O22      OBL     -0.630000       15.9994           0
      2379 MEMB     12       POPC     C22      CTL2    -0.220000       12.0110           0
      2380 MEMB     12       POPC     H2R      HAL2     0.900000E-01   1.00800           0
      2381 MEMB     12       POPC     H2S      HAL2     0.900000E-01   1.00800           0
      2382 MEMB     12       POPC     C3       CTL2     0.800000E-01   12.0110           0
      2383 MEMB     12       POPC     HX       HAL2     0.900000E-01   1.00800           0
      2384 MEMB     12       POPC     HY       HAL2     0.900000E-01   1.00800           0
      2385 MEMB     12       POPC     O31      OSL     -0.490000       15.9994           0
      2386 MEMB     12       POPC     C31      CL       0.900000       12.0110           0
      2387 MEMB     12       POPC     O32      OBL     -0.630000       15.9994           0
      2388 MEMB     12       POPC     C32      CTL2    -0.220000       12.0110           0
      2389 MEMB     12       POPC     H2X      HAL2     0.900000E-01   1.00800           0
      2390 MEMB     12       POPC     H2Y      HAL2     0.900000E-01   1.00800           0
      2391 MEMB     12       POPC     C23      CTL2    -0.180000       12.0110           0
      2392 MEMB     12       POPC     H3R      HAL2     0.900000E-01   1.00800           0
      2393 MEMB     12       POPC     H3S      HAL2     0.900000E-01   1.00800           0
      2394 MEMB     12       POPC     C24      CTL2    -0.180000       12.0110           0
      2395 MEMB     12       POPC     H4R      HAL2     0.900000E-01   1.00800           0
      2396 MEMB     12       POPC     H4S      HAL2     0.900000E-01   1.00800           0
      2397 MEMB     12       POPC     C25      CTL2    -0.180000       12.0110           0
      2398 MEMB     12       POPC     H5R      HAL2     0.900000E-01   1.00800           0
      2399 MEMB     12       POPC     H5S      HAL2     0.900000E-01   1.00800           0
      2400 MEMB     12       POPC     C26      CTL2    -0.180000       12.0110           0
      2401 MEMB     12       POPC     H6R      HAL2     0.900000E-01   1.00800           0
      2402 MEMB     12       POPC     H6S      HAL2     0.900000E-01   1.00800           0
      2403 MEMB     12       POPC     C27      CTL2    -0.180000       12.0110           0
      2404 MEMB     12       POPC     H7R      HAL2     0.900000E-01   1.00800           0
      2405 MEMB     12       POPC     H7S      HAL2     0.900000E-01   1.00800           0
      2406 MEMB     12       POPC     C28      CTL2    -0.180000       12.0110           0
      2407 MEMB     12       POPC     H8R      HAL2     0.900000E-01   1.00800           0
      2408 MEMB     12       POPC     H8S      HAL2     0.900000E-01   1.00800           0
      2409 MEMB     12       POPC     C29      CEL1    -0.150000       12.0110           0
      2410 MEMB     12       POPC     H91      HEL1     0.150000       1.00800           0
      2411 MEMB     12       POPC     C210     CEL1    -0.150000       12.0110           0
      2412 MEMB     12       POPC     H101     HEL1     0.150000       1.00800           0
      2413 MEMB     12       POPC     C211     CTL2    -0.180000       12.0110           0
      2414 MEMB     12       POPC     H11R     HAL2     0.900000E-01   1.00800           0
      2415 MEMB     12       POPC     H11S     HAL2     0.900000E-01   1.00800           0
      2416 MEMB     12       POPC     C212     CTL2    -0.180000       12.0110           0
      2417 MEMB     12       POPC     H12R     HAL2     0.900000E-01   1.00800           0
      2418 MEMB     12       POPC     H12S     HAL2     0.900000E-01   1.00800           0
      2419 MEMB     12       POPC     C213     CTL2    -0.180000       12.0110           0
      2420 MEMB     12       POPC     H13R     HAL2     0.900000E-01   1.00800           0
      2421 MEMB     12       POPC     H13S     HAL2     0.900000E-01   1.00800           0
      2422 MEMB     12       POPC     C214     CTL2    -0.180000       12.0110           0
      2423 MEMB     12       POPC     H14R     HAL2     0.900000E-01   1.00800           0
      2424 MEMB     12       POPC     H14S     HAL2     0.900000E-01   1.00800           0
      2425 MEMB     12       POPC     C215     CTL2    -0.180000       12.0110           0
      2426 MEMB     12       POPC     H15R     HAL2     0.900000E-01   1.00800           0
      2427 MEMB     12       POPC     H15S     HAL2     0.900000E-01   1.00800           0
      2428 MEMB     12       POPC     C216     CTL2    -0.180000       12.0110           0
      2429 MEMB     12       POPC     H16R     HAL2     0.900000E-01   1.00800           0
      2430 MEMB     12       POPC     H16S     HAL2     0.900000E-01   1.00800           0
      2431 MEMB     12       POPC     C217     CTL2    -0.180000       12.0110           0
      2432 MEMB     12       POPC     H17R     HAL2     0.900000E-01   1.00800           0
      2433 MEMB     12       POPC     H17S     HAL2     0.900000E-01   1.00800           0
      2434 MEMB     12       POPC     C218     CTL3    -0.270000       12.0110           0
      2435 MEMB     12       POPC     H18R     HAL3     0.900000E-01   1.00800           0
      2436 MEMB     12       POPC     H18S     HAL3     0.900000E-01   1.00800           0
      2437 MEMB     12       POPC     H18T     HAL3     0.900000E-01   1.00800           0
      2438 MEMB     12       POPC     C33      CTL2    -0.180000       12.0110           0
      2439 MEMB     12       POPC     H3X      HAL2     0.900000E-01   1.00800           0
      2440 MEMB     12       POPC     H3Y      HAL2     0.900000E-01   1.00800           0
      2441 MEMB     12       POPC     C34      CTL2    -0.180000       12.0110           0
      2442 MEMB     12       POPC     H4X      HAL2     0.900000E-01   1.00800           0
      2443 MEMB     12       POPC     H4Y      HAL2     0.900000E-01   1.00800           0
      2444 MEMB     12       POPC     C35      CTL2    -0.180000       12.0110           0
      2445 MEMB     12       POPC     H5X      HAL2     0.900000E-01   1.00800           0
      2446 MEMB     12       POPC     H5Y      HAL2     0.900000E-01   1.00800           0
      2447 MEMB     12       POPC     C36      CTL2    -0.180000       12.0110           0
      2448 MEMB     12       POPC     H6X      HAL2     0.900000E-01   1.00800           0
      2449 MEMB     12       POPC     H6Y      HAL2     0.900000E-01   1.00800           0
      2450 MEMB     12       POPC     C37      CTL2    -0.180000       12.0110           0
      2451 MEMB     12       POPC     H7X      HAL2     0.900000E-01   1.00800           0
      2452 MEMB     12       POPC     H7Y      HAL2     0.900000E-01   1.00800           0
      2453 MEMB     12       POPC     C38      CTL2    -0.180000       12.0110           0
      2454 MEMB     12       POPC     H8X      HAL2     0.900000E-01   1.00800           0
      2455 MEMB     12       POPC     H8Y      HAL2     0.900000E-01   1.00800           0
      2456 MEMB     12       POPC     C39      CTL2    -0.180000       12.0110           0
      2457 MEMB     12       POPC     H9X      HAL2     0.900000E-01   1.00800           0
      2458 MEMB     12       POPC     H9Y      HAL2     0.900000E-01   1.00800           0
      2459 MEMB     12       POPC     C310     CTL2    -0.180000       12.0110           0
      2460 MEMB     12       POPC     H10X     HAL2     0.900000E-01   1.00800           0
      2461 MEMB     12       POPC     H10Y     HAL2     0.900000E-01   1.00800           0
      2462 MEMB     12       POPC     C311     CTL2    -0.180000       12.0110           0
      2463 MEMB     12       POPC     H11X     HAL2     0.900000E-01   1.00800           0
      2464 MEMB     12       POPC     H11Y     HAL2     0.900000E-01   1.00800           0
      2465 MEMB     12       POPC     C312     CTL2    -0.180000       12.0110           0
      2466 MEMB     12       POPC     H12X     HAL2     0.900000E-01   1.00800           0
      2467 MEMB     12       POPC     H12Y     HAL2     0.900000E-01   1.00800           0
      2468 MEMB     12       POPC     C313     CTL2    -0.180000       12.0110           0
      2469 MEMB     12       POPC     H13X     HAL2     0.900000E-01   1.00800           0
      2470 MEMB     12       POPC     H13Y     HAL2     0.900000E-01   1.00800           0
      2471 MEMB     12       POPC     C314     CTL2    -0.180000       12.0110           0
      2472 MEMB     12       POPC     H14X     HAL2     0.900000E-01   1.00800           0
      2473 MEMB     12       POPC     H14Y     HAL2     0.900000E-01   1.00800           0
      2474 MEMB     12       POPC     C315     CTL2    -0.180000       12.0110           0
      2475 MEMB     12       POPC     H15X     HAL2     0.900000E-01   1.00800           0
      2476 MEMB     12       POPC     H15Y     HAL2     0.900000E-01   1.00800           0
      2477 MEMB     12       POPC     C316     CTL3    -0.270000       12.0110           0
      2478 MEMB     12       POPC     H16X     HAL3     0.900000E-01   1.00800           0
      2479 MEMB     12       POPC     H16Y     HAL3     0.900000E-01   1.00800           0
      2480 MEMB     12       POPC     H16Z     HAL3     0.900000E-01   1.00800           0
      2481 MEMB     13       POPC     N        NTL     -0.600000       14.0070           0
      2482 MEMB     13       POPC     C12      CTL2    -0.100000       12.0110           0
      2483 MEMB     13       POPC     H12A     HL       0.250000       1.00800           0
      2484 MEMB     13       POPC     H12B     HL       0.250000       1.00800           0
      2485 MEMB     13       POPC     C13      CTL5    -0.350000       12.0110           0
      2486 MEMB     13       POPC     H13A     HL       0.250000       1.00800           0
      2487 MEMB     13       POPC     H13B     HL       0.250000       1.00800           0
      2488 MEMB     13       POPC     H13C     HL       0.250000       1.00800           0
      2489 MEMB     13       POPC     C14      CTL5    -0.350000       12.0110           0
      2490 MEMB     13       POPC     H14A     HL       0.250000       1.00800           0
      2491 MEMB     13       POPC     H14B     HL       0.250000       1.00800           0
      2492 MEMB     13       POPC     H14C     HL       0.250000       1.00800           0
      2493 MEMB     13       POPC     C15      CTL5    -0.350000       12.0110           0
      2494 MEMB     13       POPC     H15A     HL       0.250000       1.00800           0
      2495 MEMB     13       POPC     H15B     HL       0.250000       1.00800           0
      2496 MEMB     13       POPC     H15C     HL       0.250000       1.00800           0
      2497 MEMB     13       POPC     C11      CTL2    -0.800000E-01   12.0110           0
      2498 MEMB     13       POPC     H11A     HAL2     0.900000E-01   1.00800           0
      2499 MEMB     13       POPC     H11B     HAL2     0.900000E-01   1.00800           0
      2500 MEMB     13       POPC     P        PL        1.50000       30.9740           0
      2501 MEMB     13       POPC     O13      O2L     -0.780000       15.9994           0
      2502 MEMB     13       POPC     O14      O2L     -0.780000       15.9994           0
      2503 MEMB     13       POPC     O12      OSLP    -0.570000       15.9994           0
      2504 MEMB     13       POPC     O11      OSLP    -0.570000       15.9994           0
      2505 MEMB     13       POPC     C1       CTL2    -0.800000E-01   12.0110           0
      2506 MEMB     13       POPC     HA       HAL2     0.900000E-01   1.00800           0
      2507 MEMB     13       POPC     HB       HAL2     0.900000E-01   1.00800           0
      2508 MEMB     13       POPC     C2       CTL1     0.170000       12.0110           0
      2509 MEMB     13       POPC     HS       HAL1     0.900000E-01   1.00800           0
      2510 MEMB     13       POPC     O21      OSL     -0.490000       15.9994           0
      2511 MEMB     13       POPC     C21      CL       0.900000       12.0110           0
      2512 MEMB     13       POPC     O22      OBL     -0.630000       15.9994           0
      2513 MEMB     13       POPC     C22      CTL2    -0.220000       12.0110           0
      2514 MEMB     13       POPC     H2R      HAL2     0.900000E-01   1.00800           0
      2515 MEMB     13       POPC     H2S      HAL2     0.900000E-01   1.00800           0
      2516 MEMB     13       POPC     C3       CTL2     0.800000E-01   12.0110           0
      2517 MEMB     13       POPC     HX       HAL2     0.900000E-01   1.00800           0
      2518 MEMB     13       POPC     HY       HAL2     0.900000E-01   1.00800           0
      2519 MEMB     13       POPC     O31      OSL     -0.490000       15.9994           0
      2520 MEMB     13       POPC     C31      CL       0.900000       12.0110           0
      2521 MEMB     13       POPC     O32      OBL     -0.630000       15.9994           0
      2522 MEMB     13       POPC     C32      CTL2    -0.220000       12.0110           0
      2523 MEMB     13       POPC     H2X      HAL2     0.900000E-01   1.00800           0
      2524 MEMB     13       POPC     H2Y      HAL2     0.900000E-01   1.00800           0
      2525 MEMB     13       POPC     C23      CTL2    -0.180000       12.0110           0
      2526 MEMB     13       POPC     H3R      HAL2     0.900000E-01   1.00800           0
      2527 MEMB     13       POPC     H3S      HAL2     0.900000E-01   1.00800           0
      2528 MEMB     13       POPC     C24      CTL2    -0.180000       12.0110           0
      2529 MEMB     13       POPC     H4R      HAL2     0.900000E-01   1.00800           0
      2530 MEMB     13       POPC     H4S      HAL2     0.900000E-01   1.00800           0
      2531 MEMB     13       POPC     C25      CTL2    -0.180000       12.0110           0
      2532 MEMB     13       POPC     H5R      HAL2     0.900000E-01   1.00800           0
      2533 MEMB     13       POPC     H5S      HAL2     0.900000E-01   1.00800           0
      2534 MEMB     13       POPC     C26      CTL2    -0.180000       12.0110           0
      2535 MEMB     13       POPC     H6R      HAL2     0.900000E-01   1.00800           0
      2536 MEMB     13       POPC     H6S      HAL2     0.900000E-01   1.00800           0
      2537 MEMB     13       POPC     C27      CTL2    -0.180000       12.0110           0
      2538 MEMB     13       POPC     H7R      HAL2     0.900000E-01   1.00800           0
      2539 MEMB     13       POPC     H7S      HAL2     0.900000E-01   1.00800           0
      2540 MEMB     13       POPC     C28      CTL2    -0.180000       12.0110           0
      2541 MEMB     13       POPC     H8R      HAL2     0.900000E-01   1.00800           0
      2542 MEMB     13       POPC     H8S      HAL2     0.900000E-01   1.00800           0
      2543 MEMB     13       POPC     C29      CEL1    -0.150000       12.0110           0
      2544 MEMB     13       POPC     H91      HEL1     0.150000       1.00800           0
      2545 MEMB     13       POPC     C210     CEL1    -0.150000       12.0110           0
      2546 MEMB     13       POPC     H101     HEL1     0.150000       1.00800           0
      2547 MEMB     13       POPC     C211     CTL2    -0.180000       12.0110           0
      2548 MEMB     13       POPC     H11R     HAL2     0.900000E-01   1.00800           0
      2549 MEMB     13       POPC     H11S     HAL2     0.900000E-01   1.00800           0
      2550 MEMB     13       POPC     C212     CTL2    -0.180000       12.0110           0
      2551 MEMB     13       POPC     H12R     HAL2     0.900000E-01   1.00800           0
      2552 MEMB     13       POPC     H12S     HAL2     0.900000E-01   1.00800           0
      2553 MEMB     13       POPC     C213     CTL2    -0.180000       12.0110           0
      2554 MEMB     13       POPC     H13R     HAL2     0.900000E-01   1.00800           0
      2555 MEMB     13       POPC     H13S     HAL2     0.900000E-01   1.00800           0
      2556 MEMB     13       POPC     C214     CTL2    -0.180000       12.0110           0
      2557 MEMB     13       POPC     H14R     HAL2     0.900000E-01   1.00800           0
      2558 MEMB     13       POPC     H14S     HAL2     0.900000E-01   1.00800           0
      2559 MEMB     13       POPC     C215     CTL2    -0.180000       12.0110           0
      2560 MEMB     13       POPC     H15R     HAL2     0.900000E-01   1.00800           0
      2561 MEMB     13       POPC     H15S     HAL2     0.900000E-01   1.00800           0
      2562 MEMB     13       POPC     C216     CTL2    -0.180000       12.0110           0
      2563 MEMB     13       POPC     H16R     HAL2     0.900000E-01   1.00800           0
      2564 MEMB     13       POPC     H16S     HAL2     0.900000E-01   1.00800           0
      2565 MEMB     13       POPC     C217     CTL2    -0.180000       12.0110           0
      2566 MEMB     13       POPC     H17R     HAL2     0.900000E-01   1.00800           0
      2567 MEMB     13       POPC     H17S     HAL2     0.900000E-01   1.00800           0
      2568 MEMB     13       POPC     C218     CTL3    -0.270000       12.0110           0
      2569 MEMB     13       POPC     H18R     HAL3     0.900000E-01   1.00800           0
      2570 MEMB     13       POPC     H18S     HAL3     0.900000E-01   1.00800           0
      2571 MEMB     13       POPC     H18T     HAL3     0.900000E-01   1.00800           0
      2572 MEMB     13       POPC     C33      CTL2    -0.180000       12.0110           0
      2573 MEMB     13       POPC     H3X      HAL2     0.900000E-01   1.00800           0
      2574 MEMB     13       POPC     H3Y      HAL2     0.900000E-01   1.00800           0
      2575 MEMB     13       POPC     C34      CTL2    -0.180000       12.0110           0
      2576 MEMB     13       POPC     H4X      HAL2     0.900000E-01   1.00800           0
      2577 MEMB     13       POPC     H4Y      HAL2     0.900000E-01   1.00800           0
      2578 MEMB     13       POPC     C35      CTL2    -0.180000       12.0110           0
      2579 MEMB     13       POPC     H5X      HAL2     0.900000E-01   1.00800           0
      2580 MEMB     13       POPC     H5Y      HAL2     0.900000E-01   1.00800           0
      2581 MEMB     13       POPC     C36      CTL2    -0.180000       12.0110           0
      2582 MEMB     13       POPC     H6X      HAL2     0.900000E-01   1.00800           0
      2583 MEMB     13       POPC     H6Y      HAL2     0.900000E-01   1.00800           0
      2584 MEMB     13       POPC     C37      CTL2    -0.180000       12.0110           0
      2585 MEMB     13       POPC     H7X      HAL2     0.900000E-01   1.00800           0
      2586 MEMB     13       POPC     H7Y      HAL2     0.900000E-01   1.00800           0
      2587 MEMB     13       POPC     C38      CTL2    -0.180000       12.0110           0
      2588 MEMB     13       POPC     H8X      HAL2     0.900000E-01   1.00800           0
      2589 MEMB     13       POPC     H8Y      HAL2     0.900000E-01   1.00800           0
      2590 MEMB     13       POPC     C39      CTL2    -0.180000       12.0110           0
      2591 MEMB     13       POPC     H9X      HAL2     0.900000E-01   1.00800           0
      2592 MEMB     13       POPC     H9Y      HAL2     0.900000E-01   1.00800           0
      2593 MEMB     13       POPC     C310     CTL2    -0.180000       12.0110           0
      2594 MEMB     13       POPC     H10X     HAL2     0.900000E-01   1.00800           0
      2595 MEMB     13       POPC     H10Y     HAL2     0.900000E-01   1.00800           0
      2596 MEMB     13       POPC     C311     CTL2    -0.180000       12.0110           0
      2597 MEMB     13       POPC     H11X     HAL2     0.900000E-01   1.00800           0
      2598 MEMB     13       POPC     H11Y     HAL2     0.900000E-01   1.00800           0
      2599 MEMB     13       POPC     C312     CTL2    -0.180000       12.0110           0
      2600 MEMB     13       POPC     H12X     HAL2     0.900000E-01   1.00800           0
      2601 MEMB     13       POPC     H12Y     HAL2     0.900000E-01   1.00800           0
      2602 MEMB     13       POPC     C313     CTL2    -0.180000       12.0110           0
      2603 MEMB     13       POPC     H13X     HAL2     0.900000E-01   1.00800           0
      2604 MEMB     13       POPC     H13Y     HAL2     0.900000E-01   1.00800           0
      2605 MEMB     13       POPC     C314     CTL2    -0.180000       12.0110           0
      2606 MEMB     13       POPC     H14X     HAL2     0.900000E-01   1.00800           0
      2607 MEMB     13       POPC     H14Y     HAL2     0.900000E-01   1.00800           0
      2608 MEMB     13       POPC     C315     CTL2    -0.180000       12.0110           0
      2609 MEMB     13       POPC     H15X     HAL2     0.900000E-01   1.00800           0
      2610 MEMB     13       POPC     H15Y     HAL2     0.900000E-01   1.00800           0
      2611 MEMB     13       POPC     C316     CTL3    -0.270000       12.0110           0
      2612 MEMB     13       POPC     H16X     HAL3     0.900000E-01   1.00800           0
      2613 MEMB     13       POPC     H16Y     HAL3     0.900000E-01   1.00800           0
      2614 MEMB     13       POPC     H16Z     HAL3     0.900000E-01   1.00800           0
      2615 MEMB     14       POPC     N        NTL     -0.600000       14.0070           0
      2616 MEMB     14       POPC     C12      CTL2    -0.100000       12.0110           0
      2617 MEMB     14       POPC     H12A     HL       0.250000       1.00800           0
      2618 MEMB     14       POPC     H12B     HL       0.250000       1.00800           0
      2619 MEMB     14       POPC     C13      CTL5    -0.350000       12.0110           0
      2620 MEMB     14       POPC     H13A     HL       0.250000       1.00800           0
      2621 MEMB     14       POPC     H13B     HL       0.250000       1.00800           0
      2622 MEMB     14       POPC     H13C     HL       0.250000       1.00800           0
      2623 MEMB     14       POPC     C14      CTL5    -0.350000       12.0110           0
      2624 MEMB     14       POPC     H14A     HL       0.250000       1.00800           0
      2625 MEMB     14       POPC     H14B     HL       0.250000       1.00800           0
      2626 MEMB     14       POPC     H14C     HL       0.250000       1.00800           0
      2627 MEMB     14       POPC     C15      CTL5    -0.350000       12.0110           0
      2628 MEMB     14       POPC     H15A     HL       0.250000       1.00800           0
      2629 MEMB     14       POPC     H15B     HL       0.250000       1.00800           0
      2630 MEMB     14       POPC     H15C     HL       0.250000       1.00800           0
      2631 MEMB     14       POPC     C11      CTL2    -0.800000E-01   12.0110           0
      2632 MEMB     14       POPC     H11A     HAL2     0.900000E-01   1.00800           0
      2633 MEMB     14       POPC     H11B     HAL2     0.900000E-01   1.00800           0
      2634 MEMB     14       POPC     P        PL        1.50000       30.9740           0
      2635 MEMB     14       POPC     O13      O2L     -0.780000       15.9994           0
      2636 MEMB     14       POPC     O14      O2L     -0.780000       15.9994           0
      2637 MEMB     14       POPC     O12      OSLP    -0.570000       15.9994           0
      2638 MEMB     14       POPC     O11      OSLP    -0.570000       15.9994           0
      2639 MEMB     14       POPC     C1       CTL2    -0.800000E-01   12.0110           0
      2640 MEMB     14       POPC     HA       HAL2     0.900000E-01   1.00800           0
      2641 MEMB     14       POPC     HB       HAL2     0.900000E-01   1.00800           0
      2642 MEMB     14       POPC     C2       CTL1     0.170000       12.0110           0
      2643 MEMB     14       POPC     HS       HAL1     0.900000E-01   1.00800           0
      2644 MEMB     14       POPC     O21      OSL     -0.490000       15.9994           0
      2645 MEMB     14       POPC     C21      CL       0.900000       12.0110           0
      2646 MEMB     14       POPC     O22      OBL     -0.630000       15.9994           0
      2647 MEMB     14       POPC     C22      CTL2    -0.220000       12.0110           0
      2648 MEMB     14       POPC     H2R      HAL2     0.900000E-01   1.00800           0
      2649 MEMB     14       POPC     H2S      HAL2     0.900000E-01   1.00800           0
      2650 MEMB     14       POPC     C3       CTL2     0.800000E-01   12.0110           0
      2651 MEMB     14       POPC     HX       HAL2     0.900000E-01   1.00800           0
      2652 MEMB     14       POPC     HY       HAL2     0.900000E-01   1.00800           0
      2653 MEMB     14       POPC     O31      OSL     -0.490000       15.9994           0
      2654 MEMB     14       POPC     C31      CL       0.900000       12.0110           0
      2655 MEMB     14       POPC     O32      OBL     -0.630000       15.9994           0
      2656 MEMB     14       POPC     C32      CTL2    -0.220000       12.0110           0
      2657 MEMB     14       POPC     H2X      HAL2     0.900000E-01   1.00800           0
      2658 MEMB     14       POPC     H2Y      HAL2     0.900000E-01   1.00800           0
      2659 MEMB     14       POPC     C23      CTL2    -0.180000       12.0110           0
      2660 MEMB     14       POPC     H3R      HAL2     0.900000E-01   1.00800           0
      2661 MEMB     14       POPC     H3S      HAL2     0.900000E-01   1.00800           0
      2662 MEMB     14       POPC     C24      CTL2    -0.180000       12.0110           0
      2663 MEMB     14       POPC     H4R      HAL2     0.900000E-01   1.00800           0
      2664 MEMB     14       POPC     H4S      HAL2     0.900000E-01   1.00800           0
      2665 MEMB     14       POPC     C25      CTL2    -0.180000       12.0110           0
      2666 MEMB     14       POPC     H5R      HAL2     0.900000E-01   1.00800           0
      2667 MEMB     14       POPC     H5S      HAL2     0.900000E-01   1.00800           0
      2668 MEMB     14       POPC     C26      CTL2    -0.180000       12.0110           0
      2669 MEMB     14       POPC     H6R      HAL2     0.900000E-01   1.00800           0
      2670 MEMB     14       POPC     H6S      HAL2     0.900000E-01   1.00800           0
      2671 MEMB     14       POPC     C27      CTL2    -0.180000       12.0110           0
      2672 MEMB     14       POPC     H7R      HAL2     0.900000E-01   1.00800           0
      2673 MEMB     14       POPC     H7S      HAL2     0.900000E-01   1.00800           0
      2674 MEMB     14       POPC     C28      CTL2    -0.180000       12.0110           0
      2675 MEMB     14       POPC     H8R      HAL2     0.900000E-01   1.00800           0
      2676 MEMB     14       POPC     H8S      HAL2     0.900000E-01   1.00800           0
      2677 MEMB     14       POPC     C29      CEL1    -0.150000       12.0110           0
      2678 MEMB     14       POPC     H91      HEL1     0.150000       1.00800           0
      2679 MEMB     14       POPC     C210     CEL1    -0.150000       12.0110           0
      2680 MEMB     14       POPC     H101     HEL1     0.150000       1.00800           0
      2681 MEMB     14       POPC     C211     CTL2    -0.180000       12.0110           0
      2682 MEMB     14       POPC     H11R     HAL2     0.900000E-01   1.00800           0
      2683 MEMB     14       POPC     H11S     HAL2     0.900000E-01   1.00800           0
      2684 MEMB     14       POPC     C212     CTL2    -0.180000       12.0110           0
      2685 MEMB     14       POPC     H12R     HAL2     0.900000E-01   1.00800           0
      2686 MEMB     14       POPC     H12S     HAL2     0.900000E-01   1.00800           0
      2687 MEMB     14       POPC     C213     CTL2    -0.180000       12.0110           0
      2688 MEMB     14       POPC     H13R     HAL2     0.900000E-01   1.00800           0
      2689 MEMB     14       POPC     H13S     HAL2     0.900000E-01   1.00800           0
      2690 MEMB     14       POPC     C214     CTL2    -0.180000       12.0110           0
      2691 MEMB     14       POPC     H14R     HAL2     0.900000E-01   1.00800           0
      2692 MEMB     14       POPC     H14S     HAL2     0.900000E-01   1.00800           0
      2693 MEMB     14       POPC     C215     CTL2    -0.180000       12.0110           0
      2694 MEMB     14       POPC     H15R     HAL2     0.900000E-01   1.00800           0
      2695 MEMB     14       POPC     H15S     HAL2     0.900000E-01   1.00800           0
      2696 MEMB     14       POPC     C216     CTL2    -0.180000       12.0110           0
      2697 MEMB     14       POPC     H16R     HAL2     0.900000E-01   1.00800           0
      2698 MEMB     14       POPC     H16S     HAL2     0.900000E-01   1.00800           0
      2699 MEMB     14       POPC     C217     CTL2    -0.180000       12.0110           0
      2700 MEMB     14       POPC     H17R     HAL2     0.900000E-01   1.00800           0
      2701 MEMB     14       POPC     H17S     HAL2     0.900000E-01   1.00800           0
      2702 MEMB     14       POPC     C218     CTL3    -0.270000       12.0110           0
      2703 MEMB     14       POPC     H18R     HAL3     0.900000E-01   1.00800           0
      2704 MEMB     14       POPC     H18S     HAL3     0.900000E-01   1.00800           0
      2705 MEMB     14       POPC     H18T     HAL3     0.900000E-01   1.00800           0
      2706 MEMB     14       POPC     C33      CTL2    -0.180000       12.0110           0
      2707 MEMB     14       POPC     H3X      HAL2     0.900000E-01   1.00800           0
      2708 MEMB     14       POPC     H3Y      HAL2     0.900000E-01   1.00800           0
      2709 MEMB     14       POPC     C34      CTL2    -0.180000       12.0110           0
      2710 MEMB     14       POPC     H4X      HAL2     0.900000E-01   1.00800           0
      2711 MEMB     14       POPC     H4Y      HAL2     0.900000E-01   1.00800           0
      2712 MEMB     14       POPC     C35      CTL2    -0.180000       12.0110           0
      2713 MEMB     14       POPC     H5X      HAL2     0.900000E-01   1.00800           0
      2714 MEMB     14       POPC     H5Y      HAL2     0.900000E-01   1.00800           0
      2715 MEMB     14       POPC     C36      CTL2    -0.180000       12.0110           0
      2716 MEMB     14       POPC     H6X      HAL2     0.900000E-01   1.00800           0
      2717 MEMB     14       POPC     H6Y      HAL2     0.900000E-01   1.00800           0
      2718 MEMB     14       POPC     C37      CTL2    -0.180000       12.0110           0
      2719 MEMB     14       POPC     H7X      HAL2     0.900000E-01   1.00800           0
      2720 MEMB     14       POPC     H7Y      HAL2     0.900000E-01   1.00800           0
      2721 MEMB     14       POPC     C38      CTL2    -0.180000       12.0110           0
      2722 MEMB     14       POPC     H8X      HAL2     0.900000E-01   1.00800           0
      2723 MEMB     14       POPC     H8Y      HAL2     0.900000E-01   1.00800           0
      2724 MEMB     14       POPC     C39      CTL2    -0.180000       12.0110           0
      2725 MEMB     14       POPC     H9X      HAL2     0.900000E-01   1.00800           0
      2726 MEMB     14       POPC     H9Y      HAL2     0.900000E-01   1.00800           0
      2727 MEMB     14       POPC     C310     CTL2    -0.180000       12.0110           0
      2728 MEMB     14       POPC     H10X     HAL2     0.900000E-01   1.00800           0
      2729 MEMB     14       POPC     H10Y     HAL2     0.900000E-01   1.00800           0
      2730 MEMB     14       POPC     C311     CTL2    -0.180000       12.0110           0
      2731 MEMB     14       POPC     H11X     HAL2     0.900000E-01   1.00800           0
      2732 MEMB     14       POPC     H11Y     HAL2     0.900000E-01   1.00800           0
      2733 MEMB     14       POPC     C312     CTL2    -0.180000       12.0110           0
      2734 MEMB     14       POPC     H12X     HAL2     0.900000E-01   1.00800           0
      2735 MEMB     14       POPC     H12Y     HAL2     0.900000E-01   1.00800           0
      2736 MEMB     14       POPC     C313     CTL2    -0.180000       12.0110           0
      2737 MEMB     14       POPC     H13X     HAL2     0.900000E-01   1.00800           0
      2738 MEMB     14       POPC     H13Y     HAL2     0.900000E-01   1.00800           0
      2739 MEMB     14       POPC     C314     CTL2    -0.180000       12.0110           0
      2740 MEMB     14       POPC     H14X     HAL2     0.900000E-01   1.00800           0
      2741 MEMB     14       POPC     H14Y     HAL2     0.900000E-01   1.00800           0
      2742 MEMB     14       POPC     C315     CTL2    -0.180000       12.0110           0
      2743 MEMB     14       POPC     H15X     HAL2     0.900000E-01   1.00800           0
      2744 MEMB     14       POPC     H15Y     HAL2     0.900000E-01   1.00800           0
      2745 MEMB     14       POPC     C316     CTL3    -0.270000       12.0110           0
      2746 MEMB     14       POPC     H16X     HAL3     0.900000E-01   1.00800           0
      2747 MEMB     14       POPC     H16Y     HAL3     0.900000E-01   1.00800           0
      2748 MEMB     14       POPC     H16Z     HAL3     0.900000E-01   1.00800           0
      2749 MEMB     15       POPC     N        NTL     -0.600000       14.0070           0
      2750 MEMB     15       POPC     C12      CTL2    -0.100000       12.0110           0
      2751 MEMB     15       POPC     H12A     HL       0.250000       1.00800           0
      2752 MEMB     15       POPC     H12B     HL       0.250000       1.00800           0
      2753 MEMB     15       POPC     C13      CTL5    -0.350000       12.0110           0
      2754 MEMB     15       POPC     H13A     HL       0.250000       1.00800           0
      2755 MEMB     15       POPC     H13B     HL       0.250000       1.00800           0
      2756 MEMB     15       POPC     H13C     HL       0.250000       1.00800           0
      2757 MEMB     15       POPC     C14      CTL5    -0.350000       12.0110           0
      2758 MEMB     15       POPC     H14A     HL       0.250000       1.00800           0
      2759 MEMB     15       POPC     H14B     HL       0.250000       1.00800           0
      2760 MEMB     15       POPC     H14C     HL       0.250000       1.00800           0
      2761 MEMB     15       POPC     C15      CTL5    -0.350000       12.0110           0
      2762 MEMB     15       POPC     H15A     HL       0.250000       1.00800           0
      2763 MEMB     15       POPC     H15B     HL       0.250000       1.00800           0
      2764 MEMB     15       POPC     H15C     HL       0.250000       1.00800           0
      2765 MEMB     15       POPC     C11      CTL2    -0.800000E-01   12.0110           0
      2766 MEMB     15       POPC     H11A     HAL2     0.900000E-01   1.00800           0
      2767 MEMB     15       POPC     H11B     HAL2     0.900000E-01   1.00800           0
      2768 MEMB     15       POPC     P        PL        1.50000       30.9740           0
      2769 MEMB     15       POPC     O13      O2L     -0.780000       15.9994           0
      2770 MEMB     15       POPC     O14      O2L     -0.780000       15.9994           0
      2771 MEMB     15       POPC     O12      OSLP    -0.570000       15.9994           0
      2772 MEMB     15       POPC     O11      OSLP    -0.570000       15.9994           0
      2773 MEMB     15       POPC     C1       CTL2    -0.800000E-01   12.0110           0
      2774 MEMB     15       POPC     HA       HAL2     0.900000E-01   1.00800           0
      2775 MEMB     15       POPC     HB       HAL2     0.900000E-01   1.00800           0
      2776 MEMB     15       POPC     C2       CTL1     0.170000       12.0110           0
      2777 MEMB     15       POPC     HS       HAL1     0.900000E-01   1.00800           0
      2778 MEMB     15       POPC     O21      OSL     -0.490000       15.9994           0
      2779 MEMB     15       POPC     C21      CL       0.900000       12.0110           0
      2780 MEMB     15       POPC     O22      OBL     -0.630000       15.9994           0
      2781 MEMB     15       POPC     C22      CTL2    -0.220000       12.0110           0
      2782 MEMB     15       POPC     H2R      HAL2     0.900000E-01   1.00800           0
      2783 MEMB     15       POPC     H2S      HAL2     0.900000E-01   1.00800           0
      2784 MEMB     15       POPC     C3       CTL2     0.800000E-01   12.0110           0
      2785 MEMB     15       POPC     HX       HAL2     0.900000E-01   1.00800           0
      2786 MEMB     15       POPC     HY       HAL2     0.900000E-01   1.00800           0
      2787 MEMB     15       POPC     O31      OSL     -0.490000       15.9994           0
      2788 MEMB     15       POPC     C31      CL       0.900000       12.0110           0
      2789 MEMB     15       POPC     O32      OBL     -0.630000       15.9994           0
      2790 MEMB     15       POPC     C32      CTL2    -0.220000       12.0110           0
      2791 MEMB     15       POPC     H2X      HAL2     0.900000E-01   1.00800           0
      2792 MEMB     15       POPC     H2Y      HAL2     0.900000E-01   1.00800           0
      2793 MEMB     15       POPC     C23      CTL2    -0.180000       12.0110           0
      2794 MEMB     15       POPC     H3R      HAL2     0.900000E-01   1.00800           0
      2795 MEMB     15       POPC     H3S      HAL2     0.900000E-01   1.00800           0
      2796 MEMB     15       POPC     C24      CTL2    -0.180000       12.0110           0
      2797 MEMB     15       POPC     H4R      HAL2     0.900000E-01   1.00800           0
      2798 MEMB     15       POPC     H4S      HAL2     0.900000E-01   1.00800           0
      2799 MEMB     15       POPC     C25      CTL2    -0.180000       12.0110           0
      2800 MEMB     15       POPC     H5R      HAL2     0.900000E-01   1.00800           0
      2801 MEMB     15       POPC     H5S      HAL2     0.900000E-01   1.00800           0
      2802 MEMB     15       POPC     C26      CTL2    -0.180000       12.0110           0
      2803 MEMB     15       POPC     H6R      HAL2     0.900000E-01   1.00800           0
      2804 MEMB     15       POPC     H6S      HAL2     0.900000E-01   1.00800           0
      2805 MEMB     15       POPC     C27      CTL2    -0.180000       12.0110           0
      2806 MEMB     15       POPC     H7R      HAL2     0.900000E-01   1.00800           0
      2807 MEMB     15       POPC     H7S      HAL2     0.900000E-01   1.00800           0
      2808 MEMB     15       POPC     C28      CTL2    -0.180000       12.0110           0
      2809 MEMB     15       POPC     H8R      HAL2     0.900000E-01   1.00800           0
      2810 MEMB     15       POPC     H8S      HAL2     0.900000E-01   1.00800           0
      2811 MEMB     15       POPC     C29      CEL1    -0.150000       12.0110           0
      2812 MEMB     15       POPC     H91      HEL1     0.150000       1.00800           0
      2813 MEMB     15       POPC     C210     CEL1    -0.150000       12.0110           0
      2814 MEMB     15       POPC     H101     HEL1     0.150000       1.00800           0
      2815 MEMB     15       POPC     C211     CTL2    -0.180000       12.0110           0
      2816 MEMB     15       POPC     H11R     HAL2     0.900000E-01   1.00800           0
      2817 MEMB     15       POPC     H11S     HAL2     0.900000E-01   1.00800           0
      2818 MEMB     15       POPC     C212     CTL2    -0.180000       12.0110           0
      2819 MEMB     15       POPC     H12R     HAL2     0.900000E-01   1.00800           0
      2820 MEMB     15       POPC     H12S     HAL2     0.900000E-01   1.00800           0
      2821 MEMB     15       POPC     C213     CTL2    -0.180000       12.0110           0
      2822 MEMB     15       POPC     H13R     HAL2     0.900000E-01   1.00800           0
      2823 MEMB     15       POPC     H13S     HAL2     0.900000E-01   1.00800           0
      2824 MEMB     15       POPC     C214     CTL2    -0.180000       12.0110           0
      2825 MEMB     15       POPC     H14R     HAL2     0.900000E-01   1.00800           0
      2826 MEMB     15       POPC     H14S     HAL2     0.900000E-01   1.00800           0
      2827 MEMB     15       POPC     C215     CTL2    -0.180000       12.0110           0
      2828 MEMB     15       POPC     H15R     HAL2     0.900000E-01   1.00800           0
      2829 MEMB     15       POPC     H15S     HAL2     0.900000E-01   1.00800           0
      2830 MEMB     15       POPC     C216     CTL2    -0.180000       12.0110           0
      2831 MEMB     15       POPC     H16R     HAL2     0.900000E-01   1.00800           0
      2832 MEMB     15       POPC     H16S     HAL2     0.900000E-01   1.00800           0
      2833 MEMB     15       POPC     C217     CTL2    -0.180000       12.0110           0
      2834 MEMB     15       POPC     H17R     HAL2     0.900000E-01   1.00800           0
      2835 MEMB     15       POPC     H17S     HAL2     0.900000E-01   1.00800           0
      2836 MEMB     15       POPC     C218     CTL3    -0.270000       12.0110           0
      2837 MEMB     15       POPC     H18R     HAL3     0.900000E-01   1.00800           0
      2838 MEMB     15       POPC     H18S     HAL3     0.900000E-01   1.00800           0
      2839 MEMB     15       POPC     H18T     HAL3     0.900000E-01   1.00800           0
      2840 MEMB     15       POPC     C33      CTL2    -0.180000       12.0110           0
      2841 MEMB     15       POPC     H3X      HAL2     0.900000E-01   1.00800           0
      2842 MEMB     15       POPC     H3Y      HAL2     0.900000E-01   1.00800           0
      2843 MEMB     15       POPC     C34      CTL2    -0.180000       12.0110           0
      2844 MEMB     15       POPC     H4X      HAL2     0.900000E-01   1.00800           0
      2845 MEMB     15       POPC     H4Y      HAL2     0.900000E-01   1.00800           0
      2846 MEMB     15       POPC     C35      CTL2    -0.180000       12.0110           0
      2847 MEMB     15       POPC     H5X      HAL2     0.900000E-01   1.00800           0
      2848 MEMB     15       POPC     H5Y      HAL2     0.900000E-01   1.00800           0
      2849 MEMB     15       POPC     C36      CTL2    -0.180000       12.0110           0
      2850 MEMB     15       POPC     H6X      HAL2     0.900000E-01   1.00800           0
      2851 MEMB     15       POPC     H6Y      HAL2     0.900000E-01   1.00800           0
      2852 MEMB     15       POPC     C37      CTL2    -0.180000       12.0110           0
      2853 MEMB     15       POPC     H7X      HAL2     0.900000E-01   1.00800           0
      2854 MEMB     15       POPC     H7Y      HAL2     0.900000E-01   1.00800           0
      2855 MEMB     15       POPC     C38      CTL2    -0.180000       12.0110           0
      2856 MEMB     15       POPC     H8X      HAL2     0.900000E-01   1.00800           0
      2857 MEMB     15       POPC     H8Y      HAL2     0.900000E-01   1.00800           0
      2858 MEMB     15       POPC     C39      CTL2    -0.180000       12.0110           0
      2859 MEMB     15       POPC     H9X      HAL2     0.900000E-01   1.00800           0
      2860 MEMB     15       POPC     H9Y      HAL2     0.900000E-01   1.00800           0
      2861 MEMB     15       POPC     C310     CTL2    -0.180000       12.0110           0
      2862 MEMB     15       POPC     H10X     HAL2     0.900000E-01   1.00800           0
      2863 MEMB     15       POPC     H10Y     HAL2     0.900000E-01   1.00800           0
      2864 MEMB     15       POPC     C311     CTL2    -0.180000       12.0110           0
      2865 MEMB     15       POPC     H11X     HAL2     0.900000E-01   1.00800           0
      2866 MEMB     15       POPC     H11Y     HAL2     0.900000E-01   1.00800           0
      2867 MEMB     15       POPC     C312     CTL2    -0.180000       12.0110           0
      2868 MEMB     15       POPC     H12X     HAL2     0.900000E-01   1.00800           0
      2869 MEMB     15       POPC     H12Y     HAL2     0.900000E-01   1.00800           0
      2870 MEMB     15       POPC     C313     CTL2    -0.180000       12.0110           0
      2871 MEMB     15       POPC     H13X     HAL2     0.900000E-01   1.00800           0
      2872 MEMB     15       POPC     H13Y     HAL2     0.900000E-01   1.00800           0
      2873 MEMB     15       POPC     C314     CTL2    -0.180000       12.0110           0
      2874 MEMB     15       POPC     H14X     HAL2     0.900000E-01   1.00800           0
      2875 MEMB     15       POPC     H14Y     HAL2     0.900000E-01   1.00800           0
      2876 MEMB     15       POPC     C315     CTL2    -0.180000       12.0110           0
      2877 MEMB     15       POPC     H15X     HAL2     0.900000E-01   1.00800           0
      2878 MEMB     15       POPC     H15Y     HAL2     0.900000E-01   1.00800           0
      2879 MEMB     15       POPC     C316     CTL3    -0.270000       12.0110           0
      2880 MEMB     15       POPC     H16X     HAL3     0.900000E-01   1.00800           0
      2881 MEMB     15       POPC     H16Y     HAL3     0.900000E-01   1.00800           0
      2882 MEMB     15       POPC     H16Z     HAL3     0.900000E-01   1.00800           0
      2883 MEMB     16       POPC     N        NTL     -0.600000       14.0070           0
      2884 MEMB     16       POPC     C12      CTL2    -0.100000       12.0110           0
      2885 MEMB     16       POPC     H12A     HL       0.250000       1.00800           0
      2886 MEMB     16       POPC     H12B     HL       0.250000       1.00800           0
      2887 MEMB     16       POPC     C13      CTL5    -0.350000       12.0110           0
      2888 MEMB     16       POPC     H13A     HL       0.250000       1.00800           0
      2889 MEMB     16       POPC     H13B     HL       0.250000       1.00800           0
      2890 MEMB     16       POPC     H13C     HL       0.250000       1.00800           0
      2891 MEMB     16       POPC     C14      CTL5    -0.350000       12.0110           0
      2892 MEMB     16       POPC     H14A     HL       0.250000       1.00800           0
      2893 MEMB     16       POPC     H14B     HL       0.250000       1.00800           0
      2894 MEMB     16       POPC     H14C     HL       0.250000       1.00800           0
      2895 MEMB     16       POPC     C15      CTL5    -0.350000       12.0110           0
      2896 MEMB     16       POPC     H15A     HL       0.250000       1.00800           0
      2897 MEMB     16       POPC     H15B     HL       0.250000       1.00800           0
      2898 MEMB     16       POPC     H15C     HL       0.250000       1.00800           0
      2899 MEMB     16       POPC     C11      CTL2    -0.800000E-01   12.0110           0
      2900 MEMB     16       POPC     H11A     HAL2     0.900000E-01   1.00800           0
      2901 MEMB     16       POPC     H11B     HAL2     0.900000E-01   1.00800           0
      2902 MEMB     16       POPC     P        PL        1.50000       30.9740           0
      2903 MEMB     16       POPC     O13      O2L     -0.780000       15.9994           0
      2904 MEMB     16       POPC     O14      O2L     -0.780000       15.9994           0
      2905 MEMB     16       POPC     O12      OSLP    -0.570000       15.9994           0
      2906 MEMB     16       POPC     O11      OSLP    -0.570000       15.9994           0
      2907 MEMB     16       POPC     C1       CTL2    -0.800000E-01   12.0110           0
      2908 MEMB     16       POPC     HA       HAL2     0.900000E-01   1.00800           0
      2909 MEMB     16       POPC     HB       HAL2     0.900000E-01   1.00800           0
      2910 MEMB     16       POPC     C2       CTL1     0.170000       12.0110           0
      2911 MEMB     16       POPC     HS       HAL1     0.900000E-01   1.00800           0
      2912 MEMB     16       POPC     O21      OSL     -0.490000       15.9994           0
      2913 MEMB     16       POPC     C21      CL       0.900000       12.0110           0
      2914 MEMB     16       POPC     O22      OBL     -0.630000       15.9994           0
      2915 MEMB     16       POPC     C22      CTL2    -0.220000       12.0110           0
      2916 MEMB     16       POPC     H2R      HAL2     0.900000E-01   1.00800           0
      2917 MEMB     16       POPC     H2S      HAL2     0.900000E-01   1.00800           0
      2918 MEMB     16       POPC     C3       CTL2     0.800000E-01   12.0110           0
      2919 MEMB     16       POPC     HX       HAL2     0.900000E-01   1.00800           0
      2920 MEMB     16       POPC     HY       HAL2     0.900000E-01   1.00800           0
      2921 MEMB     16       POPC     O31      OSL     -0.490000       15.9994           0
      2922 MEMB     16       POPC     C31      CL       0.900000       12.0110           0
      2923 MEMB     16       POPC     O32      OBL     -0.630000       15.9994           0
      2924 MEMB     16       POPC     C32      CTL2    -0.220000       12.0110           0
      2925 MEMB     16       POPC     H2X      HAL2     0.900000E-01   1.00800           0
      2926 MEMB     16       POPC     H2Y      HAL2     0.900000E-01   1.00800           0
      2927 MEMB     16       POPC     C23      CTL2    -0.180000       12.0110           0
      2928 MEMB     16       POPC     H3R      HAL2     0.900000E-01   1.00800           0
      2929 MEMB     16       POPC     H3S      HAL2     0.900000E-01   1.00800           0
      2930 MEMB     16       POPC     C24      CTL2    -0.180000       12.0110           0
      2931 MEMB     16       POPC     H4R      HAL2     0.900000E-01   1.00800           0
      2932 MEMB     16       POPC     H4S      HAL2     0.900000E-01   1.00800           0
      2933 MEMB     16       POPC     C25      CTL2    -0.180000       12.0110           0
      2934 MEMB     16       POPC     H5R      HAL2     0.900000E-01   1.00800           0
      2935 MEMB     16       POPC     H5S      HAL2     0.900000E-01   1.00800           0
      2936 MEMB     16       POPC     C26      CTL2    -0.180000       12.0110           0
      2937 MEMB     16       POPC     H6R      HAL2     0.900000E-01   1.00800           0
      2938 MEMB     16       POPC     H6S      HAL2     0.900000E-01   1.00800           0
      2939 MEMB     16       POPC     C27      CTL2    -0.180000       12.0110           0
      2940 MEMB     16       POPC     H7R      HAL2     0.900000E-01   1.00800           0
      2941 MEMB     16       POPC     H7S      HAL2     0.900000E-01   1.00800           0
      2942 MEMB     16       POPC     C28      CTL2    -0.180000       12.0110           0
      2943 MEMB     16       POPC     H8R      HAL2     0.900000E-01   1.00800           0
      2944 MEMB     16       POPC     H8S      HAL2     0.900000E-01   1.00800           0
      2945 MEMB     16       POPC     C29      CEL1    -0.150000       12.0110           0
      2946 MEMB     16       POPC     H91      HEL1     0.150000       1.00800           0
      2947 MEMB     16       POPC     C210     CEL1    -0.150000       12.0110           0
      2948 MEMB     16       POPC     H101     HEL1     0.150000       1.00800           0
      2949 MEMB     16       POPC     C211     CTL2    -0.180000       12.0110           0
      2950 MEMB     16       POPC     H11R     HAL2     0.900000E-01   1.00800           0
      2951 MEMB     16       POPC     H11S     HAL2     0.900000E-01   1.00800           0
      2952 MEMB     16       POPC     C212     CTL2    -0.180000       12.0110           0
      2953 MEMB     16       POPC     H12R     HAL2     0.900000E-01   1.00800           0
      2954 MEMB     16       POPC     H12S     HAL2     0.900000E-01   1.00800           0
      2955 MEMB     16       POPC     C213     CTL2    -0.180000       12.0110           0
      2956 MEMB     16       POPC     H13R     HAL2     0.900000E-01   1.00800           0
      2957 MEMB     16       POPC     H13S     HAL2     0.900000E-01   1.00800           0
      2958 MEMB     16       POPC     C214     CTL2    -0.180000       12.0110           0
      2959 MEMB     16       POPC     H14R     HAL2     0.900000E-01   1.00800           0
      2960 MEMB     16       POPC     H14S     HAL2     0.900000E-01   1.00800           0
      2961 MEMB     16       POPC     C215     CTL2    -0.180000       12.0110           0
      2962 MEMB     16       POPC     H15R     HAL2     0.900000E-01   1.00800           0
      2963 MEMB     16       POPC     H15S     HAL2     0.900000E-01   1.00800           0
      2964 MEMB     16       POPC     C216     CTL2    -0.180000       12.0110           0
      2965 MEMB     16       POPC     H16R     HAL2     0.900000E-01   1.00800           0
      2966 MEMB     16       POPC     H16S     HAL2     0.900000E-01   1.00800           0
      2967 MEMB     16       POPC     C217     CTL2    -0.180000       12.0110           0
      2968 MEMB     16       POPC     H17R     HAL2     0.900000E-01   1.00800           0
      2969 MEMB     16       POPC     H17S     HAL2     0.900000E-01   1.00800           0
      2970 MEMB     16       POPC     C218     CTL3    -0.270000       12.0110           0
      2971 MEMB     16       POPC     H18R     HAL3     0.900000E-01   1.00800           0
      2972 MEMB     16       POPC     H18S     HAL3     0.900000E-01   1.00800           0
      2973 MEMB     16       POPC     H18T     HAL3     0.900000E-01   1.00800           0
      2974 MEMB     16       POPC     C33      CTL2    -0.180000       12.0110           0
      2975 MEMB     16       POPC     H3X      HAL2     0.900000E-01   1.00800           0
      2976 MEMB     16       POPC     H3Y      HAL2     0.900000E-01   1.00800           0
      2977 MEMB     16       POPC     C34      CTL2    -0.180000       12.0110           0
      2978 MEMB     16       POPC     H4X      HAL2     0.900000E-01   1.00800           0
      2979 MEMB     16       POPC     H4Y      HAL2     0.900000E-01   1.00800           0
      2980 MEMB     16       POPC     C35      CTL2    -0.180000       12.0110           0
      2981 MEMB     16       POPC     H5X      HAL2     0.900000E-01   1.00800           0
      2982 MEMB     16       POPC     H5Y      HAL2     0.900000E-01   1.00800           0
      2983 MEMB     16       POPC     C36      CTL2    -0.180000       12.0110           0
      2984 MEMB     16       POPC     H6X      HAL2     0.900000E-01   1.00800           0
      2985 MEMB     16       POPC     H6Y      HAL2     0.900000E-01   1.00800           0
      2986 MEMB     16       POPC     C37      CTL2    -0.180000       12.0110           0
      2987 MEMB     16       POPC     H7X      HAL2     0.900000E-01   1.00800           0
      2988 MEMB     16       POPC     H7Y      HAL2     0.900000E-01   1.00800           0
      2989 MEMB     16       POPC     C38      CTL2    -0.180000       12.0110           0
      2990 MEMB     16       POPC     H8X      HAL2     0.900000E-01   1.00800           0
      2991 MEMB     16       POPC     H8Y      HAL2     0.900000E-01   1.00800           0
      2992 MEMB     16       POPC     C39      CTL2    -0.180000       12.0110           0
      2993 MEMB     16       POPC     H9X      HAL2     0.900000E-01   1.00800           0
      2994 MEMB     16       POPC     H9Y      HAL2     0.900000E-01   1.00800           0
      2995 MEMB     16       POPC     C310     CTL2    -0.180000       12.0110           0
      2996 MEMB     16       POPC     H10X     HAL2     0.900000E-01   1.00800           0
      2997 MEMB     16       POPC     H10Y     HAL2     0.900000E-01   1.00800           0
      2998 MEMB     16       POPC     C311     CTL2    -0.180000       12.0110           0
      2999 MEMB     16       POPC     H11X     HAL2     0.900000E-01   1.00800           0
      3000 MEMB     16       POPC     H11Y     HAL2     0.900000E-01   1.00800           0
      3001 MEMB     16       POPC     C312     CTL2    -0.180000       12.0110           0
      3002 MEMB     16       POPC     H12X     HAL2     0.900000E-01   1.00800           0
      3003 MEMB     16       POPC     H12Y     HAL2     0.900000E-01   1.00800           0
      3004 MEMB     16       POPC     C313     CTL2    -0.180000       12.0110           0
      3005 MEMB     16       POPC     H13X     HAL2     0.900000E-01   1.00800           0
      3006 MEMB     16       POPC     H13Y     HAL2     0.900000E-01   1.00800           0
      3007 MEMB     16       POPC     C314     CTL2    -0.180000       12.0110           0
      3008 MEMB     16       POPC     H14X     HAL2     0.900000E-01   1.00800           0
      3009 MEMB     16       POPC     H14Y     HAL2     0.900000E-01   1.00800           0
      3010 MEMB     16       POPC     C315     CTL2    -0.180000       12.0110           0
      3011 MEMB     16       POPC     H15X     HAL2     0.900000E-01   1.00800           0
      3012 MEMB     16       POPC     H15Y     HAL2     0.900000E-01   1.00800           0
      3013 MEMB     16       POPC     C316     CTL3    -0.270000       12.0110           0
      3014 MEMB     16       POPC     H16X     HAL3     0.900000E-01   1.00800           0
      3015 MEMB     16       POPC     H16Y     HAL3     0.900000E-01   1.00800           0
      3016 MEMB     16       POPC     H16Z     HAL3     0.900000E-01   1.00800           0
      3017 MEMB     17       POPC     N        NTL     -0.600000       14.0070           0
      3018 MEMB     17       POPC     C12      CTL2    -0.100000       12.0110           0
      3019 MEMB     17       POPC     H12A     HL       0.250000       1.00800           0
      3020 MEMB     17       POPC     H12B     HL       0.250000       1.00800           0
      3021 MEMB     17       POPC     C13      CTL5    -0.350000       12.0110           0
      3022 MEMB     17       POPC     H13A     HL       0.250000       1.00800           0
      3023 MEMB     17       POPC     H13B     HL       0.250000       1.00800           0
      3024 MEMB     17       POPC     H13C     HL       0.250000       1.00800           0
      3025 MEMB     17       POPC     C14      CTL5    -0.350000       12.0110           0
      3026 MEMB     17       POPC     H14A     HL       0.250000       1.00800           0
      3027 MEMB     17       POPC     H14B     HL       0.250000       1.00800           0
      3028 MEMB     17       POPC     H14C     HL       0.250000       1.00800           0
      3029 MEMB     17       POPC     C15      CTL5    -0.350000       12.0110           0
      3030 MEMB     17       POPC     H15A     HL       0.250000       1.00800           0
      3031 MEMB     17       POPC     H15B     HL       0.250000       1.00800           0
      3032 MEMB     17       POPC     H15C     HL       0.250000       1.00800           0
      3033 MEMB     17       POPC     C11      CTL2    -0.800000E-01   12.0110           0
      3034 MEMB     17       POPC     H11A     HAL2     0.900000E-01   1.00800           0
      3035 MEMB     17       POPC     H11B     HAL2     0.900000E-01   1.00800           0
      3036 MEMB     17       POPC     P        PL        1.50000       30.9740           0
      3037 MEMB     17       POPC     O13      O2L     -0.780000       15.9994           0
      3038 MEMB     17       POPC     O14      O2L     -0.780000       15.9994           0
      3039 MEMB     17       POPC     O12      OSLP    -0.570000       15.9994           0
      3040 MEMB     17       POPC     O11      OSLP    -0.570000       15.9994           0
      3041 MEMB     17       POPC     C1       CTL2    -0.800000E-01   12.0110           0
      3042 MEMB     17       POPC     HA       HAL2     0.900000E-01   1.00800           0
      3043 MEMB     17       POPC     HB       HAL2     0.900000E-01   1.00800           0
      3044 MEMB     17       POPC     C2       CTL1     0.170000       12.0110           0
      3045 MEMB     17       POPC     HS       HAL1     0.900000E-01   1.00800           0
      3046 MEMB     17       POPC     O21      OSL     -0.490000       15.9994           0
      3047 MEMB     17       POPC     C21      CL       0.900000       12.0110           0
      3048 MEMB     17       POPC     O22      OBL     -0.630000       15.9994           0
      3049 MEMB     17       POPC     C22      CTL2    -0.220000       12.0110           0
      3050 MEMB     17       POPC     H2R      HAL2     0.900000E-01   1.00800           0
      3051 MEMB     17       POPC     H2S      HAL2     0.900000E-01   1.00800           0
      3052 MEMB     17       POPC     C3       CTL2     0.800000E-01   12.0110           0
      3053 MEMB     17       POPC     HX       HAL2     0.900000E-01   1.00800           0
      3054 MEMB     17       POPC     HY       HAL2     0.900000E-01   1.00800           0
      3055 MEMB     17       POPC     O31      OSL     -0.490000       15.9994           0
      3056 MEMB     17       POPC     C31      CL       0.900000       12.0110           0
      3057 MEMB     17       POPC     O32      OBL     -0.630000       15.9994           0
      3058 MEMB     17       POPC     C32      CTL2    -0.220000       12.0110           0
      3059 MEMB     17       POPC     H2X      HAL2     0.900000E-01   1.00800           0
      3060 MEMB     17       POPC     H2Y      HAL2     0.900000E-01   1.00800           0
      3061 MEMB     17       POPC     C23      CTL2    -0.180000       12.0110           0
      3062 MEMB     17       POPC     H3R      HAL2     0.900000E-01   1.00800           0
      3063 MEMB     17       POPC     H3S      HAL2     0.900000E-01   1.00800           0
      3064 MEMB     17       POPC     C24      CTL2    -0.180000       12.0110           0
      3065 MEMB     17       POPC     H4R      HAL2     0.900000E-01   1.00800           0
      3066 MEMB     17       POPC     H4S      HAL2     0.900000E-01   1.00800           0
      3067 MEMB     17       POPC     C25      CTL2    -0.180000       12.0110           0
      3068 MEMB     17       POPC     H5R      HAL2     0.900000E-01   1.00800           0
      3069 MEMB     17       POPC     H5S      HAL2     0.900000E-01   1.00800           0
      3070 MEMB     17       POPC     C26      CTL2    -0.180000       12.0110           0
      3071 MEMB     17       POPC     H6R      HAL2     0.900000E-01   1.00800           0
      3072 MEMB     17       POPC     H6S      HAL2     0.900000E-01   1.00800           0
      3073 MEMB     17       POPC     C27      CTL2    -0.180000       12.0110           0
      3074 MEMB     17       POPC     H7R      HAL2     0.900000E-01   1.00800           0
      3075 MEMB     17       POPC     H7S      HAL2     0.900000E-01   1.00800           0
      3076 MEMB     17       POPC     C28      CTL2    -0.180000       12.0110           0
      3077 MEMB     17       POPC     H8R      HAL2     0.900000E-01   1.00800           0
      3078 MEMB     17       POPC     H8S      HAL2     0.900000E-01   1.00800           0
      3079 MEMB     17       POPC     C29      CEL1    -0.150000       12.0110           0
      3080 MEMB     17       POPC     H91      HEL1     0.150000       1.00800           0
      3081 MEMB     17       POPC     C210     CEL1    -0.150000       12.0110           0
      3082 MEMB     17       POPC     H101     HEL1     0.150000       1.00800           0
      3083 MEMB     17       POPC     C211     CTL2    -0.180000       12.0110           0
      3084 MEMB     17       POPC     H11R     HAL2     0.900000E-01   1.00800           0
      3085 MEMB     17       POPC     H11S     HAL2     0.900000E-01   1.00800           0
      3086 MEMB     17       POPC     C212     CTL2    -0.180000       12.0110           0
      3087 MEMB     17       POPC     H12R     HAL2     0.900000E-01   1.00800           0
      3088 MEMB     17       POPC     H12S     HAL2     0.900000E-01   1.00800           0
      3089 MEMB     17       POPC     C213     CTL2    -0.180000       12.0110           0
      3090 MEMB     17       POPC     H13R     HAL2     0.900000E-01   1.00800           0
      3091 MEMB     17       POPC     H13S     HAL2     0.900000E-01   1.00800           0
      3092 MEMB     17       POPC     C214     CTL2    -0.180000       12.0110           0
      3093 MEMB     17       POPC     H14R     HAL2     0.900000E-01   1.00800           0
      3094 MEMB     17       POPC     H14S     HAL2     0.900000E-01   1.00800           0
      3095 MEMB     17       POPC     C215     CTL2    -0.180000       12.0110           0
      3096 MEMB     17       POPC     H15R     HAL2     0.900000E-01   1.00800           0
      3097 MEMB     17       POPC     H15S     HAL2     0.900000E-01   1.00800           0
      3098 MEMB     17       POPC     C216     CTL2    -0.180000       12.0110           0
      3099 MEMB     17       POPC     H16R     HAL2     0.900000E-01   1.00800           0
      3100 MEMB     17       POPC     H16S     HAL2     0.900000E-01   1.00800           0
      3101 MEMB     17       POPC     C217     CTL2    -0.180000       12.0110           0
      3102 MEMB     17       POPC     H17R     HAL2     0.900000E-01   1.00800           0
      3103 MEMB     17       POPC     H17S     HAL2     0.900000E-01   1.00800           0
      3104 MEMB     17       POPC     C218     CTL3    -0.270000       12.0110           0
      3105 MEMB     17       POPC     H18R     HAL3     0.900000E-01   1.00800           0
      3106 MEMB     17       POPC     H18S     HAL3     0.900000E-01   1.00800           0
      3107 MEMB     17       POPC     H18T     HAL3     0.900000E-01   1.00800           0
      3108 MEMB     17       POPC     C33      CTL2    -0.180000       12.0110           0
      3109 MEMB     17       POPC     H3X      HAL2     0.900000E-01   1.00800           0
      3110 MEMB     17       POPC     H3Y      HAL2     0.900000E-01   1.00800           0
      3111 MEMB     17       POPC     C34      CTL2    -0.180000       12.0110           0
      3112 MEMB     17       POPC     H4X      HAL2     0.900000E-01   1.00800           0
      3113 MEMB     17       POPC     H4Y      HAL2     0.900000E-01   1.00800           0
      3114 MEMB     17       POPC     C35      CTL2    -0.180000       12.0110           0
      3115 MEMB     17       POPC     H5X      HAL2     0.900000E-01   1.00800           0
      3116 MEMB     17       POPC     H5Y      HAL2     0.900000E-01   1.00800           0
      3117 MEMB     17       POPC     C36      CTL2    -0.180000       12.0110           0
      3118 MEMB     17       POPC     H6X      HAL2     0.900000E-01   1.00800           0
      3119 MEMB     17       POPC     H6Y      HAL2     0.900000E-01   1.00800           0
      3120 MEMB     17       POPC     C37      CTL2    -0.180000       12.0110           0
      3121 MEMB     17       POPC     H7X      HAL2     0.900000E-01   1.00800           0
      3122 MEMB     17       POPC     H7Y      HAL2     0.900000E-01   1.00800           0
      3123 MEMB     17       POPC     C38      CTL2    -0.180000       12.0110           0
      3124 MEMB     17       POPC     H8X      HAL2     0.900000E-01   1.00800           0
      3125 MEMB     17       POPC     H8Y      HAL2     0.900000E-01   1.00800           0
      3126 MEMB     17       POPC     C39      CTL2    -0.180000       12.0110           0
      3127 MEMB     17       POPC     H9X      HAL2     0.900000E-01   1.00800           0
      3128 MEMB     17       POPC     H9Y      HAL2     0.900000E-01   1.00800           0
      3129 MEMB     17       POPC     C310     CTL2    -0.180000       12.0110           0
      3130 MEMB     17       POPC     H10X     HAL2     0.900000E-01   1.00800           0
      3131 MEMB     17       POPC     H10Y     HAL2     0.900000E-01   1.00800           0
      3132 MEMB     17       POPC     C311     CTL2    -0.180000       12.0110           0
      3133 MEMB     17       POPC     H11X     HAL2     0.900000E-01   1.00800           0
      3134 MEMB     17       POPC     H11Y     HAL2     0.900000E-01   1.00800           0
      3135 MEMB     17       POPC     C312     CTL2    -0.180000       12.0110           0
      3136 MEMB     17       POPC     H12X     HAL2     0.900000E-01   1.00800           0
      3137 MEMB     17       POPC     H12Y     HAL2     0.900000E-01   1.00800           0
      3138 MEMB     17       POPC     C313     CTL2    -0.180000       12.0110           0
      3139 MEMB     17       POPC     H13X     HAL2     0.900000E-01   1.00800           0
      3140 MEMB     17       POPC     H13Y     HAL2     0.900000E-01   1.00800           0
      3141 MEMB     17       POPC     C314     CTL2    -0.180000       12.0110           0
      3142 MEMB     17       POPC     H14X     HAL2     0.900000E-01   1.00800           0
      3143 MEMB     17       POPC     H14Y     HAL2     0.900000E-01   1.00800           0
      3144 MEMB     17       POPC     C315     CTL2    -0.180000       12.0110           0
      3145 MEMB     17       POPC     H15X     HAL2     0.900000E-01   1.00800           0
      3146 MEMB     17       POPC     H15Y     HAL2     0.900000E-01   1.00800           0
      3147 MEMB     17       POPC     C316     CTL3    -0.270000       12.0110           0
      3148 MEMB     17       POPC     H16X     HAL3     0.900000E-01   1.00800           0
      3149 MEMB     17       POPC     H16Y     HAL3     0.900000E-01   1.00800           0
      3150 MEMB     17       POPC     H16Z     HAL3     0.900000E-01   1.00800           0
      3151 MEMB     18       POPC     N        NTL     -0.600000       14.0070           0
      3152 MEMB     18       POPC     C12      CTL2    -0.100000       12.0110           0
      3153 MEMB     18       POPC     H12A     HL       0.250000       1.00800           0
      3154 MEMB     18       POPC     H12B     HL       0.250000       1.00800           0
      3155 MEMB     18       POPC     C13      CTL5    -0.350000       12.0110           0
      3156 MEMB     18       POPC     H13A     HL       0.250000       1.00800           0
      3157 MEMB     18       POPC     H13B     HL       0.250000       1.00800           0
      3158 MEMB     18       POPC     H13C     HL       0.250000       1.00800           0
      3159 MEMB     18       POPC     C14      CTL5    -0.350000       12.0110           0
      3160 MEMB     18       POPC     H14A     HL       0.250000       1.00800           0
      3161 MEMB     18       POPC     H14B     HL       0.250000       1.00800           0
      3162 MEMB     18       POPC     H14C     HL       0.250000       1.00800           0
      3163 MEMB     18       POPC     C15      CTL5    -0.350000       12.0110           0
      3164 MEMB     18       POPC     H15A     HL       0.250000       1.00800           0
      3165 MEMB     18       POPC     H15B     HL       0.250000       1.00800           0
      3166 MEMB     18       POPC     H15C     HL       0.250000       1.00800           0
      3167 MEMB     18       POPC     C11      CTL2    -0.800000E-01   12.0110           0
      3168 MEMB     18       POPC     H11A     HAL2     0.900000E-01   1.00800           0
      3169 MEMB     18       POPC     H11B     HAL2     0.900000E-01   1.00800           0
      3170 MEMB     18       POPC     P        PL        1.50000       30.9740           0
      3171 MEMB     18       POPC     O13      O2L     -0.780000       15.9994           0
      3172 MEMB     18       POPC     O14      O2L     -0.780000       15.9994           0
      3173 MEMB     18       POPC     O12      OSLP    -0.570000       15.9994           0
      3174 MEMB     18       POPC     O11      OSLP    -0.570000       15.9994           0
      3175 MEMB     18       POPC     C1       CTL2    -0.800000E-01   12.0110           0
      3176 MEMB     18       POPC     HA       HAL2     0.900000E-01   1.00800           0
      3177 MEMB     18       POPC     HB       HAL2     0.900000E-01   1.00800           0
      3178 MEMB     18       POPC     C2       CTL1     0.170000       12.0110           0
      3179 MEMB     18       POPC     HS       HAL1     0.900000E-01   1.00800           0
      3180 MEMB     18       POPC     O21      OSL     -0.490000       15.9994           0
      3181 MEMB     18       POPC     C21      CL       0.900000       12.0110           0
      3182 MEMB     18       POPC     O22      OBL     -0.630000       15.9994           0
      3183 MEMB     18       POPC     C22      CTL2    -0.220000       12.0110           0
      3184 MEMB     18       POPC     H2R      HAL2     0.900000E-01   1.00800           0
      3185 MEMB     18       POPC     H2S      HAL2     0.900000E-01   1.00800           0
      3186 MEMB     18       POPC     C3       CTL2     0.800000E-01   12.0110           0
      3187 MEMB     18       POPC     HX       HAL2     0.900000E-01   1.00800           0
      3188 MEMB     18       POPC     HY       HAL2     0.900000E-01   1.00800           0
      3189 MEMB     18       POPC     O31      OSL     -0.490000       15.9994           0
      3190 MEMB     18       POPC     C31      CL       0.900000       12.0110           0
      3191 MEMB     18       POPC     O32      OBL     -0.630000       15.9994           0
      3192 MEMB     18       POPC     C32      CTL2    -0.220000       12.0110           0
      3193 MEMB     18       POPC     H2X      HAL2     0.900000E-01   1.00800           0
      3194 MEMB     18       POPC     H2Y      HAL2     0.900000E-01   1.00800           0
      3195 MEMB     18       POPC     C23      CTL2    -0.180000       12.0110           0
      3196 MEMB     18       POPC     H3R      HAL2     0.900000E-01   1.00800           0
      3197 MEMB     18       POPC     H3S      HAL2     0.900000E-01   1.00800           0
      3198 MEMB     18       POPC     C24      CTL2    -0.180000       12.0110           0
      3199 MEMB     18       POPC     H4R      HAL2     0.900000E-01   1.00800           0
      3200 MEMB     18       POPC     H4S      HAL2     0.900000E-01   1.00800           0
      3201 MEMB     18       POPC     C25      CTL2    -0.180000       12.0110           0
      3202 MEMB     18       POPC     H5R      HAL2     0.900000E-01   1.00800           0
      3203 MEMB     18       POPC     H5S      HAL2     0.900000E-01   1.00800           0
      3204 MEMB     18       POPC     C26      CTL2    -0.180000       12.0110           0
      3205 MEMB     18       POPC     H6R      HAL2     0.900000E-01   1.00800           0
      3206 MEMB     18       POPC     H6S      HAL2     0.900000E-01   1.00800           0
      3207 MEMB     18       POPC     C27      CTL2    -0.180000       12.0110           0
      3208 MEMB     18       POPC     H7R      HAL2     0.900000E-01   1.00800           0
      3209 MEMB     18       POPC     H7S      HAL2     0.900000E-01   1.00800           0
      3210 MEMB     18       POPC     C28      CTL2    -0.180000       12.0110           0
      3211 MEMB     18       POPC     H8R      HAL2     0.900000E-01   1.00800           0
      3212 MEMB     18       POPC     H8S      HAL2     0.900000E-01   1.00800           0
      3213 MEMB     18       POPC     C29      CEL1    -0.150000       12.0110           0
      3214 MEMB     18       POPC     H91      HEL1     0.150000       1.00800           0
      3215 MEMB     18       POPC     C210     CEL1    -0.150000       12.0110           0
      3216 MEMB     18       POPC     H101     HEL1     0.150000       1.00800           0
      3217 MEMB     18       POPC     C211     CTL2    -0.180000       12.0110           0
      3218 MEMB     18       POPC     H11R     HAL2     0.900000E-01   1.00800           0
      3219 MEMB     18       POPC     H11S     HAL2     0.900000E-01   1.00800           0
      3220 MEMB     18       POPC     C212     CTL2    -0.180000       12.0110           0
      3221 MEMB     18       POPC     H12R     HAL2     0.900000E-01   1.00800           0
      3222 MEMB     18       POPC     H12S     HAL2     0.900000E-01   1.00800           0
      3223 MEMB     18       POPC     C213     CTL2    -0.180000       12.0110           0
      3224 MEMB     18       POPC     H13R     HAL2     0.900000E-01   1.00800           0
      3225 MEMB     18       POPC     H13S     HAL2     0.900000E-01   1.00800           0
      3226 MEMB     18       POPC     C214     CTL2    -0.180000       12.0110           0
      3227 MEMB     18       POPC     H14R     HAL2     0.900000E-01   1.00800           0
      3228 MEMB     18       POPC     H14S     HAL2     0.900000E-01   1.00800           0
      3229 MEMB     18       POPC     C215     CTL2    -0.180000       12.0110           0
      3230 MEMB     18       POPC     H15R     HAL2     0.900000E-01   1.00800           0
      3231 MEMB     18       POPC     H15S     HAL2     0.900000E-01   1.00800           0
      3232 MEMB     18       POPC     C216     CTL2    -0.180000       12.0110           0
      3233 MEMB     18       POPC     H16R     HAL2     0.900000E-01   1.00800           0
      3234 MEMB     18       POPC     H16S     HAL2     0.900000E-01   1.00800           0
      3235 MEMB     18       POPC     C217     CTL2    -0.180000       12.0110           0
      3236 MEMB     18       POPC     H17R     HAL2     0.900000E-01   1.00800           0
      3237 MEMB     18       POPC     H17S     HAL2     0.900000E-01   1.00800           0
      3238 MEMB     18       POPC     C218     CTL3    -0.270000       12.0110           0
      3239 MEMB     18       POPC     H18R     HAL3     0.900000E-01   1.00800           0
      3240 MEMB     18       POPC     H18S     HAL3     0.900000E-01   1.00800           0
      3241 MEMB     18       POPC     H18T     HAL3     0.900000E-01   1.00800           0
      3242 MEMB     18       POPC     C33      CTL2    -0.180000       12.0110           0
      3243 MEMB     18       POPC     H3X      HAL2     0.900000E-01   1.00800           0
      3244 MEMB     18       POPC     H3Y      HAL2     0.900000E-01   1.00800           0
      3245 MEMB     18       POPC     C34      CTL2    -0.180000       12.0110           0
      3246 MEMB     18       POPC     H4X      HAL2     0.900000E-01   1.00800           0
      3247 MEMB     18       POPC     H4Y      HAL2     0.900000E-01   1.00800           0
      3248 MEMB     18       POPC     C35      CTL2    -0.180000       12.0110           0
      3249 MEMB     18       POPC     H5X      HAL2     0.900000E-01   1.00800           0
      3250 MEMB     18       POPC     H5Y      HAL2     0.900000E-01   1.00800           0
      3251 MEMB     18       POPC     C36      CTL2    -0.180000       12.0110           0
      3252 MEMB     18       POPC     H6X      HAL2     0.900000E-01   1.00800           0
      3253 MEMB     18       POPC     H6Y      HAL2     0.900000E-01   1.00800           0
      3254 MEMB     18       POPC     C37      CTL2    -0.180000       12.0110           0
      3255 MEMB     18       POPC     H7X      HAL2     0.900000E-01   1.00800           0
      3256 MEMB     18       POPC     H7Y      HAL2     0.900000E-01   1.00800           0
      3257 MEMB     18       POPC     C38      CTL2    -0.180000       12.0110           0
      3258 MEMB     18       POPC     H8X      HAL2     0.900000E-01   1.00800           0
      3259 MEMB     18       POPC     H8Y      HAL2     0.900000E-01   1.00800           0
      3260 MEMB     18       POPC     C39      CTL2    -0.180000       12.0110           0
      3261 MEMB     18       POPC     H9X      HAL2     0.900000E-01   1.00800           0
      3262 MEMB     18       POPC     H9Y      HAL2     0.900000E-01   1.00800           0
      3263 MEMB     18       POPC     C310     CTL2    -0.180000       12.0110           0
      3264 MEMB     18       POPC     H10X     HAL2     0.900000E-01   1.00800           0
      3265 MEMB     18       POPC     H10Y     HAL2     0.900000E-01   1.00800           0
      3266 MEMB     18       POPC     C311     CTL2    -0.180000       12.0110           0
      3267 MEMB     18       POPC     H11X     HAL2     0.900000E-01   1.00800           0
      3268 MEMB     18       POPC     H11Y     HAL2     0.900000E-01   1.00800           0
      3269 MEMB     18       POPC     C312     CTL2    -0.180000       12.0110           0
      3270 MEMB     18       POPC     H12X     HAL2     0.900000E-01   1.00800           0
      3271 MEMB     18       POPC     H12Y     HAL2     0.900000E-01   1.00800           0
      3272 MEMB     18       POPC     C313     CTL2    -0.180000       12.0110           0
      3273 MEMB     18       POPC     H13X     HAL2     0.900000E-01   1.00800           0
      3274 MEMB     18       POPC     H13Y     HAL2     0.900000E-01   1.00800           0
      3275 MEMB     18       POPC     C314     CTL2    -0.180000       12.0110           0
      3276 MEMB     18       POPC     H14X     HAL2     0.900000E-01   1.00800           0
      3277 MEMB     18       POPC     H14Y     HAL2     0.900000E-01   1.00800           0
      3278 MEMB     18       POPC     C315     CTL2    -0.180000       12.0110           0
      3279 MEMB     18       POPC     H15X     HAL2     0.900000E-01   1.00800           0
      3280 MEMB     18       POPC     H15Y     HAL2     0.900000E-01   1.00800           0
      3281 MEMB     18       POPC     C316     CTL3    -0.270000       12.0110           0
      3282 MEMB     18       POPC     H16X     HAL3     0.900000E-01   1.00800           0
      3283 MEMB     18       POPC     H16Y     HAL3     0.900000E-01   1.00800           0
      3284 MEMB     18       POPC     H16Z     HAL3     0.900000E-01   1.00800           0
      3285 MEMB     19       POPC     N        NTL     -0.600000       14.0070           0
      3286 MEMB     19       POPC     C12      CTL2    -0.100000       12.0110           0
      3287 MEMB     19       POPC     H12A     HL       0.250000       1.00800           0
      3288 MEMB     19       POPC     H12B     HL       0.250000       1.00800           0
      3289 MEMB     19       POPC     C13      CTL5    -0.350000       12.0110           0
      3290 MEMB     19       POPC     H13A     HL       0.250000       1.00800           0
      3291 MEMB     19       POPC     H13B     HL       0.250000       1.00800           0
      3292 MEMB     19       POPC     H13C     HL       0.250000       1.00800           0
      3293 MEMB     19       POPC     C14      CTL5    -0.350000       12.0110           0
      3294 MEMB     19       POPC     H14A     HL       0.250000       1.00800           0
      3295 MEMB     19       POPC     H14B     HL       0.250000       1.00800           0
      3296 MEMB     19       POPC     H14C     HL       0.250000       1.00800           0
      3297 MEMB     19       POPC     C15      CTL5    -0.350000       12.0110           0
      3298 MEMB     19       POPC     H15A     HL       0.250000       1.00800           0
      3299 MEMB     19       POPC     H15B     HL       0.250000       1.00800           0
      3300 MEMB     19       POPC     H15C     HL       0.250000       1.00800           0
      3301 MEMB     19       POPC     C11      CTL2    -0.800000E-01   12.0110           0
      3302 MEMB     19       POPC     H11A     HAL2     0.900000E-01   1.00800           0
      3303 MEMB     19       POPC     H11B     HAL2     0.900000E-01   1.00800           0
      3304 MEMB     19       POPC     P        PL        1.50000       30.9740           0
      3305 MEMB     19       POPC     O13      O2L     -0.780000       15.9994           0
      3306 MEMB     19       POPC     O14      O2L     -0.780000       15.9994           0
      3307 MEMB     19       POPC     O12      OSLP    -0.570000       15.9994           0
      3308 MEMB     19       POPC     O11      OSLP    -0.570000       15.9994           0
      3309 MEMB     19       POPC     C1       CTL2    -0.800000E-01   12.0110           0
      3310 MEMB     19       POPC     HA       HAL2     0.900000E-01   1.00800           0
      3311 MEMB     19       POPC     HB       HAL2     0.900000E-01   1.00800           0
      3312 MEMB     19       POPC     C2       CTL1     0.170000       12.0110           0
      3313 MEMB     19       POPC     HS       HAL1     0.900000E-01   1.00800           0
      3314 MEMB     19       POPC     O21      OSL     -0.490000       15.9994           0
      3315 MEMB     19       POPC     C21      CL       0.900000       12.0110           0
      3316 MEMB     19       POPC     O22      OBL     -0.630000       15.9994           0
      3317 MEMB     19       POPC     C22      CTL2    -0.220000       12.0110           0
      3318 MEMB     19       POPC     H2R      HAL2     0.900000E-01   1.00800           0
      3319 MEMB     19       POPC     H2S      HAL2     0.900000E-01   1.00800           0
      3320 MEMB     19       POPC     C3       CTL2     0.800000E-01   12.0110           0
      3321 MEMB     19       POPC     HX       HAL2     0.900000E-01   1.00800           0
      3322 MEMB     19       POPC     HY       HAL2     0.900000E-01   1.00800           0
      3323 MEMB     19       POPC     O31      OSL     -0.490000       15.9994           0
      3324 MEMB     19       POPC     C31      CL       0.900000       12.0110           0
      3325 MEMB     19       POPC     O32      OBL     -0.630000       15.9994           0
      3326 MEMB     19       POPC     C32      CTL2    -0.220000       12.0110           0
      3327 MEMB     19       POPC     H2X      HAL2     0.900000E-01   1.00800           0
      3328 MEMB     19       POPC     H2Y      HAL2     0.900000E-01   1.00800           0
      3329 MEMB     19       POPC     C23      CTL2    -0.180000       12.0110           0
      3330 MEMB     19       POPC     H3R      HAL2     0.900000E-01   1.00800           0
      3331 MEMB     19       POPC     H3S      HAL2     0.900000E-01   1.00800           0
      3332 MEMB     19       POPC     C24      CTL2    -0.180000       12.0110           0
      3333 MEMB     19       POPC     H4R      HAL2     0.900000E-01   1.00800           0
      3334 MEMB     19       POPC     H4S      HAL2     0.900000E-01   1.00800           0
      3335 MEMB     19       POPC     C25      CTL2    -0.180000       12.0110           0
      3336 MEMB     19       POPC     H5R      HAL2     0.900000E-01   1.00800           0
      3337 MEMB     19       POPC     H5S      HAL2     0.900000E-01   1.00800           0
      3338 MEMB     19       POPC     C26      CTL2    -0.180000       12.0110           0
      3339 MEMB     19       POPC     H6R      HAL2     0.900000E-01   1.00800           0
      3340 MEMB     19       POPC     H6S      HAL2     0.900000E-01   1.00800           0
      3341 MEMB     19       POPC     C27      CTL2    -0.180000       12.0110           0
      3342 MEMB     19       POPC     H7R      HAL2     0.900000E-01   1.00800           0
      3343 MEMB     19       POPC     H7S      HAL2     0.900000E-01   1.00800           0
      3344 MEMB     19       POPC     C28      CTL2    -0.180000       12.0110           0
      3345 MEMB     19       POPC     H8R      HAL2     0.900000E-01   1.00800           0
      3346 MEMB     19       POPC     H8S      HAL2     0.900000E-01   1.00800           0
      3347 MEMB     19       POPC     C29      CEL1    -0.150000       12.0110           0
      3348 MEMB     19       POPC     H91      HEL1     0.150000       1.00800           0
      3349 MEMB     19       POPC     C210     CEL1    -0.150000       12.0110           0
      3350 MEMB     19       POPC     H101     HEL1     0.150000       1.00800           0
      3351 MEMB     19       POPC     C211     CTL2    -0.180000       12.0110           0
      3352 MEMB     19       POPC     H11R     HAL2     0.900000E-01   1.00800           0
      3353 MEMB     19       POPC     H11S     HAL2     0.900000E-01   1.00800           0
      3354 MEMB     19       POPC     C212     CTL2    -0.180000       12.0110           0
      3355 MEMB     19       POPC     H12R     HAL2     0.900000E-01   1.00800           0
      3356 MEMB     19       POPC     H12S     HAL2     0.900000E-01   1.00800           0
      3357 MEMB     19       POPC     C213     CTL2    -0.180000       12.0110           0
      3358 MEMB     19       POPC     H13R     HAL2     0.900000E-01   1.00800           0
      3359 MEMB     19       POPC     H13S     HAL2     0.900000E-01   1.00800           0
      3360 MEMB     19       POPC     C214     CTL2    -0.180000       12.0110           0
      3361 MEMB     19       POPC     H14R     HAL2     0.900000E-01   1.00800           0
      3362 MEMB     19       POPC     H14S     HAL2     0.900000E-01   1.00800           0
      3363 MEMB     19       POPC     C215     CTL2    -0.180000       12.0110           0
      3364 MEMB     19       POPC     H15R     HAL2     0.900000E-01   1.00800           0
      3365 MEMB     19       POPC     H15S     HAL2     0.900000E-01   1.00800           0
      3366 MEMB     19       POPC     C216     CTL2    -0.180000       12.0110           0
      3367 MEMB     19       POPC     H16R     HAL2     0.900000E-01   1.00800           0
      3368 MEMB     19       POPC     H16S     HAL2     0.900000E-01   1.00800           0
      3369 MEMB     19       POPC     C217     CTL2    -0.180000       12.0110           0
      3370 MEMB     19       POPC     H17R     HAL2     0.900000E-01   1.00800           0
      3371 MEMB     19       POPC     H17S     HAL2     0.900000E-01   1.00800           0
      3372 MEMB     19       POPC     C218     CTL3    -0.270000       12.0110           0
      3373 MEMB     19       POPC     H18R     HAL3     0.900000E-01   1.00800           0
      3374 MEMB     19       POPC     H18S     HAL3     0.900000E-01   1.00800           0
      3375 MEMB     19       POPC     H18T     HAL3     0.900000E-01   1.00800           0
      3376 MEMB     19       POPC     C33      CTL2    -0.180000       12.0110           0
      3377 MEMB     19       POPC     H3X      HAL2     0.900000E-01   1.00800           0
      3378 MEMB     19       POPC     H3Y      HAL2     0.900000E-01   1.00800           0
      3379 MEMB     19       POPC     C34      CTL2    -0.180000       12.0110           0
      3380 MEMB     19       POPC     H4X      HAL2     0.900000E-01   1.00800           0
      3381 MEMB     19       POPC     H4Y      HAL2     0.900000E-01   1.00800           0
      3382 MEMB     19       POPC     C35      CTL2    -0.180000       12.0110           0
      3383 MEMB     19       POPC     H5X      HAL2     0.900000E-01   1.00800           0
      3384 MEMB     19       POPC     H5Y      HAL2     0.900000E-01   1.00800           0
      3385 MEMB     19       POPC     C36      CTL2    -0.180000       12.0110           0
      3386 MEMB     19       POPC     H6X      HAL2     0.900000E-01   1.00800           0
      3387 MEMB     19       POPC     H6Y      HAL2     0.900000E-01   1.00800           0
      3388 MEMB     19       POPC     C37      CTL2    -0.180000       12.0110           0
      3389 MEMB     19       POPC     H7X      HAL2     0.900000E-01   1.00800           0
      3390 MEMB     19       POPC     H7Y      HAL2     0.900000E-01   1.00800           0
      3391 MEMB     19       POPC     C38      CTL2    -0.180000       12.0110           0
      3392 MEMB     19       POPC     H8X      HAL2     0.900000E-01   1.00800           0
      3393 MEMB     19       POPC     H8Y      HAL2     0.900000E-01   1.00800           0
      3394 MEMB     19       POPC     C39      CTL2    -0.180000       12.0110           0
      3395 MEMB     19       POPC     H9X      HAL2     0.900000E-01   1.00800           0
      3396 MEMB     19       POPC     H9Y      HAL2     0.900000E-01   1.00800           0
      3397 MEMB     19       POPC     C310     CTL2    -0.180000       12.0110           0
      3398 MEMB     19       POPC     H10X     HAL2     0.900000E-01   1.00800           0
      3399 MEMB     19       POPC     H10Y     HAL2     0.900000E-01   1.00800           0
      3400 MEMB     19       POPC     C311     CTL2    -0.180000       12.0110           0
      3401 MEMB     19       POPC     H11X     HAL2     0.900000E-01   1.00800           0
      3402 MEMB     19       POPC     H11Y     HAL2     0.900000E-01   1.00800           0
      3403 MEMB     19       POPC     C312     CTL2    -0.180000       12.0110           0
      3404 MEMB     19       POPC     H12X     HAL2     0.900000E-01   1.00800           0
      3405 MEMB     19       POPC     H12Y     HAL2     0.900000E-01   1.00800           0
      3406 MEMB     19       POPC     C313     CTL2    -0.180000       12.0110           0
      3407 MEMB     19       POPC     H13X     HAL2     0.900000E-01   1.00800           0
      3408 MEMB     19       POPC     H13Y     HAL2     0.900000E-01   1.00800           0
      3409 MEMB     19       POPC     C314     CTL2    -0.180000       12.0110           0
      3410 MEMB     19       POPC     H14X     HAL2     0.900000E-01   1.00800           0
      3411 MEMB     19       POPC     H14Y     HAL2     0.900000E-01   1.00800           0
      3412 MEMB     19       POPC     C315     CTL2    -0.180000       12.0110           0
      3413 MEMB     19       POPC     H15X     HAL2     0.900000E-01   1.00800           0
      3414 MEMB     19       POPC     H15Y     HAL2     0.900000E-01   1.00800           0
      3415 MEMB     19       POPC     C316     CTL3    -0.270000       12.0110           0
      3416 MEMB     19       POPC     H16X     HAL3     0.900000E-01   1.00800           0
      3417 MEMB     19       POPC     H16Y     HAL3     0.900000E-01   1.00800           0
      3418 MEMB     19       POPC     H16Z     HAL3     0.900000E-01   1.00800           0
      3419 MEMB     20       POPC     N        NTL     -0.600000       14.0070           0
      3420 MEMB     20       POPC     C12      CTL2    -0.100000       12.0110           0
      3421 MEMB     20       POPC     H12A     HL       0.250000       1.00800           0
      3422 MEMB     20       POPC     H12B     HL       0.250000       1.00800           0
      3423 MEMB     20       POPC     C13      CTL5    -0.350000       12.0110           0
      3424 MEMB     20       POPC     H13A     HL       0.250000       1.00800           0
      3425 MEMB     20       POPC     H13B     HL       0.250000       1.00800           0
      3426 MEMB     20       POPC     H13C     HL       0.250000       1.00800           0
      3427 MEMB     20       POPC     C14      CTL5    -0.350000       12.0110           0
      3428 MEMB     20       POPC     H14A     HL       0.250000       1.00800           0
      3429 MEMB     20       POPC     H14B     HL       0.250000       1.00800           0
      3430 MEMB     20       POPC     H14C     HL       0.250000       1.00800           0
      3431 MEMB     20       POPC     C15      CTL5    -0.350000       12.0110           0
      3432 MEMB     20       POPC     H15A     HL       0.250000       1.00800           0
      3433 MEMB     20       POPC     H15B     HL       0.250000       1.00800           0
      3434 MEMB     20       POPC     H15C     HL       0.250000       1.00800           0
      3435 MEMB     20       POPC     C11      CTL2    -0.800000E-01   12.0110           0
      3436 MEMB     20       POPC     H11A     HAL2     0.900000E-01   1.00800           0
      3437 MEMB     20       POPC     H11B     HAL2     0.900000E-01   1.00800           0
      3438 MEMB     20       POPC     P        PL        1.50000       30.9740           0
      3439 MEMB     20       POPC     O13      O2L     -0.780000       15.9994           0
      3440 MEMB     20       POPC     O14      O2L     -0.780000       15.9994           0
      3441 MEMB     20       POPC     O12      OSLP    -0.570000       15.9994           0
      3442 MEMB     20       POPC     O11      OSLP    -0.570000       15.9994           0
      3443 MEMB     20       POPC     C1       CTL2    -0.800000E-01   12.0110           0
      3444 MEMB     20       POPC     HA       HAL2     0.900000E-01   1.00800           0
      3445 MEMB     20       POPC     HB       HAL2     0.900000E-01   1.00800           0
      3446 MEMB     20       POPC     C2       CTL1     0.170000       12.0110           0
      3447 MEMB     20       POPC     HS       HAL1     0.900000E-01   1.00800           0
      3448 MEMB     20       POPC     O21      OSL     -0.490000       15.9994           0
      3449 MEMB     20       POPC     C21      CL       0.900000       12.0110           0
      3450 MEMB     20       POPC     O22      OBL     -0.630000       15.9994           0
      3451 MEMB     20       POPC     C22      CTL2    -0.220000       12.0110           0
      3452 MEMB     20       POPC     H2R      HAL2     0.900000E-01   1.00800           0
      3453 MEMB     20       POPC     H2S      HAL2     0.900000E-01   1.00800           0
      3454 MEMB     20       POPC     C3       CTL2     0.800000E-01   12.0110           0
      3455 MEMB     20       POPC     HX       HAL2     0.900000E-01   1.00800           0
      3456 MEMB     20       POPC     HY       HAL2     0.900000E-01   1.00800           0
      3457 MEMB     20       POPC     O31      OSL     -0.490000       15.9994           0
      3458 MEMB     20       POPC     C31      CL       0.900000       12.0110           0
      3459 MEMB     20       POPC     O32      OBL     -0.630000       15.9994           0
      3460 MEMB     20       POPC     C32      CTL2    -0.220000       12.0110           0
      3461 MEMB     20       POPC     H2X      HAL2     0.900000E-01   1.00800           0
      3462 MEMB     20       POPC     H2Y      HAL2     0.900000E-01   1.00800           0
      3463 MEMB     20       POPC     C23      CTL2    -0.180000       12.0110           0
      3464 MEMB     20       POPC     H3R      HAL2     0.900000E-01   1.00800           0
      3465 MEMB     20       POPC     H3S      HAL2     0.900000E-01   1.00800           0
      3466 MEMB     20       POPC     C24      CTL2    -0.180000       12.0110           0
      3467 MEMB     20       POPC     H4R      HAL2     0.900000E-01   1.00800           0
      3468 MEMB     20       POPC     H4S      HAL2     0.900000E-01   1.00800           0
      3469 MEMB     20       POPC     C25      CTL2    -0.180000       12.0110           0
      3470 MEMB     20       POPC     H5R      HAL2     0.900000E-01   1.00800           0
      3471 MEMB     20       POPC     H5S      HAL2     0.900000E-01   1.00800           0
      3472 MEMB     20       POPC     C26      CTL2    -0.180000       12.0110           0
      3473 MEMB     20       POPC     H6R      HAL2     0.900000E-01   1.00800           0
      3474 MEMB     20       POPC     H6S      HAL2     0.900000E-01   1.00800           0
      3475 MEMB     20       POPC     C27      CTL2    -0.180000       12.0110           0
      3476 MEMB     20       POPC     H7R      HAL2     0.900000E-01   1.00800           0
      3477 MEMB     20       POPC     H7S      HAL2     0.900000E-01   1.00800           0
      3478 MEMB     20       POPC     C28      CTL2    -0.180000       12.0110           0
      3479 MEMB     20       POPC     H8R      HAL2     0.900000E-01   1.00800           0
      3480 MEMB     20       POPC     H8S      HAL2     0.900000E-01   1.00800           0
      3481 MEMB     20       POPC     C29      CEL1    -0.150000       12.0110           0
      3482 MEMB     20       POPC     H91      HEL1     0.150000       1.00800           0
      3483 MEMB     20       POPC     C210     CEL1    -0.150000       12.0110           0
      3484 MEMB     20       POPC     H101     HEL1     0.150000       1.00800           0
      3485 MEMB     20       POPC     C211     CTL2    -0.180000       12.0110           0
      3486 MEMB     20       POPC     H11R     HAL2     0.900000E-01   1.00800           0
      3487 MEMB     20       POPC     H11S     HAL2     0.900000E-01   1.00800           0
      3488 MEMB     20       POPC     C212     CTL2    -0.180000       12.0110           0
      3489 MEMB     20       POPC     H12R     HAL2     0.900000E-01   1.00800           0
      3490 MEMB     20       POPC     H12S     HAL2     0.900000E-01   1.00800           0
      3491 MEMB     20       POPC     C213     CTL2    -0.180000       12.0110           0
      3492 MEMB     20       POPC     H13R     HAL2     0.900000E-01   1.00800           0
      3493 MEMB     20       POPC     H13S     HAL2     0.900000E-01   1.00800           0
      3494 MEMB     20       POPC     C214     CTL2    -0.180000       12.0110           0
      3495 MEMB     20       POPC     H14R     HAL2     0.900000E-01   1.00800           0
      3496 MEMB     20       POPC     H14S     HAL2     0.900000E-01   1.00800           0
      3497 MEMB     20       POPC     C215     CTL2    -0.180000       12.0110           0
      3498 MEMB     20       POPC     H15R     HAL2     0.900000E-01   1.00800           0
      3499 MEMB     20       POPC     H15S     HAL2     0.900000E-01   1.00800           0
      3500 MEMB     20       POPC     C216     CTL2    -0.180000       12.0110           0
      3501 MEMB     20       POPC     H16R     HAL2     0.900000E-01   1.00800           0
      3502 MEMB     20       POPC     H16S     HAL2     0.900000E-01   1.00800           0
      3503 MEMB     20       POPC     C217     CTL2    -0.180000       12.0110           0
      3504 MEMB     20       POPC     H17R     HAL2     0.900000E-01   1.00800           0
      3505 MEMB     20       POPC     H17S     HAL2     0.900000E-01   1.00800           0
      3506 MEMB     20       POPC     C218     CTL3    -0.270000       12.0110           0
      3507 MEMB     20       POPC     H18R     HAL3     0.900000E-01   1.00800           0
      3508 MEMB     20       POPC     H18S     HAL3     0.900000E-01   1.00800           0
      3509 MEMB     20       POPC     H18T     HAL3     0.900000E-01   1.00800           0
      3510 MEMB     20       POPC     C33      CTL2    -0.180000       12.0110           0
      3511 MEMB     20       POPC     H3X      HAL2     0.900000E-01   1.00800           0
      3512 MEMB     20       POPC     H3Y      HAL2     0.900000E-01   1.00800           0
      3513 MEMB     20       POPC     C34      CTL2    -0.180000       12.0110           0
      3514 MEMB     20       POPC     H4X      HAL2     0.900000E-01   1.00800           0
      3515 MEMB     20       POPC     H4Y      HAL2     0.900000E-01   1.00800           0
      3516 MEMB     20       POPC     C35      CTL2    -0.180000       12.0110           0
      3517 MEMB     20       POPC     H5X      HAL2     0.900000E-01   1.00800           0
      3518 MEMB     20       POPC     H5Y      HAL2     0.900000E-01   1.00800           0
      3519 MEMB     20       POPC     C36      CTL2    -0.180000       12.0110           0
      3520 MEMB     20       POPC     H6X      HAL2     0.900000E-01   1.00800           0
      3521 MEMB     20       POPC     H6Y      HAL2     0.900000E-01   1.00800           0
      3522 MEMB     20       POPC     C37      CTL2    -0.180000       12.0110           0
      3523 MEMB     20       POPC     H7X      HAL2     0.900000E-01   1.00800           0
      3524 MEMB     20       POPC     H7Y      HAL2     0.900000E-01   1.00800           0
      3525 MEMB     20       POPC     C38      CTL2    -0.180000       12.0110           0
      3526 MEMB     20       POPC     H8X      HAL2     0.900000E-01   1.00800           0
      3527 MEMB     20       POPC     H8Y      HAL2     0.900000E-01   1.00800           0
      3528 MEMB     20       POPC     C39      CTL2    -0.180000       12.0110           0
      3529 MEMB     20       POPC     H9X      HAL2     0.900000E-01   1.00800           0
      3530 MEMB     20       POPC     H9Y      HAL2     0.900000E-01   1.00800           0
      3531 MEMB     20       POPC     C310     CTL2    -0.180000       12.0110           0
      3532 MEMB     20       POPC     H10X     HAL2     0.900000E-01   1.00800           0
      3533 MEMB     20       POPC     H10Y     HAL2     0.900000E-01   1.00800           0
      3534 MEMB     20       POPC     C311     CTL2    -0.180000       12.0110           0
      3535 MEMB     20       POPC     H11X     HAL2     0.900000E-01   1.00800           0
      3536 MEMB     20       POPC     H11Y     HAL2     0.900000E-01   1.00800           0
      3537 MEMB     20       POPC     C312     CTL2    -0.180000       12.0110           0
      3538 MEMB     20       POPC     H12X     HAL2     0.900000E-01   1.00800           0
      3539 MEMB     20       POPC     H12Y     HAL2     0.900000E-01   1.00800           0
      3540 MEMB     20       POPC     C313     CTL2    -0.180000       12.0110           0
      3541 MEMB     20       POPC     H13X     HAL2     0.900000E-01   1.00800           0
      3542 MEMB     20       POPC     H13Y     HAL2     0.900000E-01   1.00800           0
      3543 MEMB     20       POPC     C314     CTL2    -0.180000       12.0110           0
      3544 MEMB     20       POPC     H14X     HAL2     0.900000E-01   1.00800           0
      3545 MEMB     20       POPC     H14Y     HAL2     0.900000E-01   1.00800           0
      3546 MEMB     20       POPC     C315     CTL2    -0.180000       12.0110           0
      3547 MEMB     20       POPC     H15X     HAL2     0.900000E-01   1.00800           0
      3548 MEMB     20       POPC     H15Y     HAL2     0.900000E-01   1.00800           0
      3549 MEMB     20       POPC     C316     CTL3    -0.270000       12.0110           0
      3550 MEMB     20       POPC     H16X     HAL3     0.900000E-01   1.00800           0
      3551 MEMB     20       POPC     H16Y     HAL3     0.900000E-01   1.00800           0
      3552 MEMB     20       POPC     H16Z     HAL3     0.900000E-01   1.00800           0
      3553 MEMB     21       POPC     N        NTL     -0.600000       14.0070           0
      3554 MEMB     21       POPC     C12      CTL2    -0.100000       12.0110           0
      3555 MEMB     21       POPC     H12A     HL       0.250000       1.00800           0
      3556 MEMB     21       POPC     H12B     HL       0.250000       1.00800           0
      3557 MEMB     21       POPC     C13      CTL5    -0.350000       12.0110           0
      3558 MEMB     21       POPC     H13A     HL       0.250000       1.00800           0
      3559 MEMB     21       POPC     H13B     HL       0.250000       1.00800           0
      3560 MEMB     21       POPC     H13C     HL       0.250000       1.00800           0
      3561 MEMB     21       POPC     C14      CTL5    -0.350000       12.0110           0
      3562 MEMB     21       POPC     H14A     HL       0.250000       1.00800           0
      3563 MEMB     21       POPC     H14B     HL       0.250000       1.00800           0
      3564 MEMB     21       POPC     H14C     HL       0.250000       1.00800           0
      3565 MEMB     21       POPC     C15      CTL5    -0.350000       12.0110           0
      3566 MEMB     21       POPC     H15A     HL       0.250000       1.00800           0
      3567 MEMB     21       POPC     H15B     HL       0.250000       1.00800           0
      3568 MEMB     21       POPC     H15C     HL       0.250000       1.00800           0
      3569 MEMB     21       POPC     C11      CTL2    -0.800000E-01   12.0110           0
      3570 MEMB     21       POPC     H11A     HAL2     0.900000E-01   1.00800           0
      3571 MEMB     21       POPC     H11B     HAL2     0.900000E-01   1.00800           0
      3572 MEMB     21       POPC     P        PL        1.50000       30.9740           0
      3573 MEMB     21       POPC     O13      O2L     -0.780000       15.9994           0
      3574 MEMB     21       POPC     O14      O2L     -0.780000       15.9994           0
      3575 MEMB     21       POPC     O12      OSLP    -0.570000       15.9994           0
      3576 MEMB     21       POPC     O11      OSLP    -0.570000       15.9994           0
      3577 MEMB     21       POPC     C1       CTL2    -0.800000E-01   12.0110           0
      3578 MEMB     21       POPC     HA       HAL2     0.900000E-01   1.00800           0
      3579 MEMB     21       POPC     HB       HAL2     0.900000E-01   1.00800           0
      3580 MEMB     21       POPC     C2       CTL1     0.170000       12.0110           0
      3581 MEMB     21       POPC     HS       HAL1     0.900000E-01   1.00800           0
      3582 MEMB     21       POPC     O21      OSL     -0.490000       15.9994           0
      3583 MEMB     21       POPC     C21      CL       0.900000       12.0110           0
      3584 MEMB     21       POPC     O22      OBL     -0.630000       15.9994           0
      3585 MEMB     21       POPC     C22      CTL2    -0.220000       12.0110           0
      3586 MEMB     21       POPC     H2R      HAL2     0.900000E-01   1.00800           0
      3587 MEMB     21       POPC     H2S      HAL2     0.900000E-01   1.00800           0
      3588 MEMB     21       POPC     C3       CTL2     0.800000E-01   12.0110           0
      3589 MEMB     21       POPC     HX       HAL2     0.900000E-01   1.00800           0
      3590 MEMB     21       POPC     HY       HAL2     0.900000E-01   1.00800           0
      3591 MEMB     21       POPC     O31      OSL     -0.490000       15.9994           0
      3592 MEMB     21       POPC     C31      CL       0.900000       12.0110           0
      3593 MEMB     21       POPC     O32      OBL     -0.630000       15.9994           0
      3594 MEMB     21       POPC     C32      CTL2    -0.220000       12.0110           0
      3595 MEMB     21       POPC     H2X      HAL2     0.900000E-01   1.00800           0
      3596 MEMB     21       POPC     H2Y      HAL2     0.900000E-01   1.00800           0
      3597 MEMB     21       POPC     C23      CTL2    -0.180000       12.0110           0
      3598 MEMB     21       POPC     H3R      HAL2     0.900000E-01   1.00800           0
      3599 MEMB     21       POPC     H3S      HAL2     0.900000E-01   1.00800           0
      3600 MEMB     21       POPC     C24      CTL2    -0.180000       12.0110           0
      3601 MEMB     21       POPC     H4R      HAL2     0.900000E-01   1.00800           0
      3602 MEMB     21       POPC     H4S      HAL2     0.900000E-01   1.00800           0
      3603 MEMB     21       POPC     C25      CTL2    -0.180000       12.0110           0
      3604 MEMB     21       POPC     H5R      HAL2     0.900000E-01   1.00800           0
      3605 MEMB     21       POPC     H5S      HAL2     0.900000E-01   1.00800           0
      3606 MEMB     21       POPC     C26      CTL2    -0.180000       12.0110           0
      3607 MEMB     21       POPC     H6R      HAL2     0.900000E-01   1.00800           0
      3608 MEMB     21       POPC     H6S      HAL2     0.900000E-01   1.00800           0
      3609 MEMB     21       POPC     C27      CTL2    -0.180000       12.0110           0
      3610 MEMB     21       POPC     H7R      HAL2     0.900000E-01   1.00800           0
      3611 MEMB     21       POPC     H7S      HAL2     0.900000E-01   1.00800           0
      3612 MEMB     21       POPC     C28      CTL2    -0.180000       12.0110           0
      3613 MEMB     21       POPC     H8R      HAL2     0.900000E-01   1.00800           0
      3614 MEMB     21       POPC     H8S      HAL2     0.900000E-01   1.00800           0
      3615 MEMB     21       POPC     C29      CEL1    -0.150000       12.0110           0
      3616 MEMB     21       POPC     H91      HEL1     0.150000       1.00800           0
      3617 MEMB     21       POPC     C210     CEL1    -0.150000       12.0110           0
      3618 MEMB     21       POPC     H101     HEL1     0.150000       1.00800           0
      3619 MEMB     21       POPC     C211     CTL2    -0.180000       12.0110           0
      3620 MEMB     21       POPC     H11R     HAL2     0.900000E-01   1.00800           0
      3621 MEMB     21       POPC     H11S     HAL2     0.900000E-01   1.00800           0
      3622 MEMB     21       POPC     C212     CTL2    -0.180000       12.0110           0
      3623 MEMB     21       POPC     H12R     HAL2     0.900000E-01   1.00800           0
      3624 MEMB     21       POPC     H12S     HAL2     0.900000E-01   1.00800           0
      3625 MEMB     21       POPC     C213     CTL2    -0.180000       12.0110           0
      3626 MEMB     21       POPC     H13R     HAL2     0.900000E-01   1.00800           0
      3627 MEMB     21       POPC     H13S     HAL2     0.900000E-01   1.00800           0
      3628 MEMB     21       POPC     C214     CTL2    -0.180000       12.0110           0
      3629 MEMB     21       POPC     H14R     HAL2     0.900000E-01   1.00800           0
      3630 MEMB     21       POPC     H14S     HAL2     0.900000E-01   1.00800           0
      3631 MEMB     21       POPC     C215     CTL2    -0.180000       12.0110           0
      3632 MEMB     21       POPC     H15R     HAL2     0.900000E-01   1.00800           0
      3633 MEMB     21       POPC     H15S     HAL2     0.900000E-01   1.00800           0
      3634 MEMB     21       POPC     C216     CTL2    -0.180000       12.0110           0
      3635 MEMB     21       POPC     H16R     HAL2     0.900000E-01   1.00800           0
      3636 MEMB     21       POPC     H16S     HAL2     0.900000E-01   1.00800           0
      3637 MEMB     21       POPC     C217     CTL2    -0.180000       12.0110           0
      3638 MEMB     21       POPC     H17R     HAL2     0.900000E-01   1.00800           0
      3639 MEMB     21       POPC     H17S     HAL2     0.900000E-01   1.00800           0
      3640 MEMB     21       POPC     C218     CTL3    -0.270000       12.0110           0
      3641 MEMB     21       POPC     H18R     HAL3     0.900000E-01   1.00800           0
      3642 MEMB     21       POPC     H18S     HAL3     0.900000E-01   1.00800           0
      3643 MEMB     21       POPC     H18T     HAL3     0.900000E-01   1.00800           0
      3644 MEMB     21       POPC     C33      CTL2    -0.180000       12.0110           0
      3645 MEMB     21       POPC     H3X      HAL2     0.900000E-01   1.00800           0
      3646 MEMB     21       POPC     H3Y      HAL2     0.900000E-01   1.00800           0
      3647 MEMB     21       POPC     C34      CTL2    -0.180000       12.0110           0
      3648 MEMB     21       POPC     H4X      HAL2     0.900000E-01   1.00800           0
      3649 MEMB     21       POPC     H4Y      HAL2     0.900000E-01   1.00800           0
      3650 MEMB     21       POPC     C35      CTL2    -0.180000       12.0110           0
      3651 MEMB     21       POPC     H5X      HAL2     0.900000E-01   1.00800           0
      3652 MEMB     21       POPC     H5Y      HAL2     0.900000E-01   1.00800           0
      3653 MEMB     21       POPC     C36      CTL2    -0.180000       12.0110           0
      3654 MEMB     21       POPC     H6X      HAL2     0.900000E-01   1.00800           0
      3655 MEMB     21       POPC     H6Y      HAL2     0.900000E-01   1.00800           0
      3656 MEMB     21       POPC     C37      CTL2    -0.180000       12.0110           0
      3657 MEMB     21       POPC     H7X      HAL2     0.900000E-01   1.00800           0
      3658 MEMB     21       POPC     H7Y      HAL2     0.900000E-01   1.00800           0
      3659 MEMB     21       POPC     C38      CTL2    -0.180000       12.0110           0
      3660 MEMB     21       POPC     H8X      HAL2     0.900000E-01   1.00800           0
      3661 MEMB     21       POPC     H8Y      HAL2     0.900000E-01   1.00800           0
      3662 MEMB     21       POPC     C39      CTL2    -0.180000       12.0110           0
      3663 MEMB     21       POPC     H9X      HAL2     0.900000E-01   1.00800           0
      3664 MEMB     21       POPC     H9Y      HAL2     0.900000E-01   1.00800           0
      3665 MEMB     21       POPC     C310     CTL2    -0.180000       12.0110           0
      3666 MEMB     21       POPC     H10X     HAL2     0.900000E-01   1.00800           0
      3667 MEMB     21       POPC     H10Y     HAL2     0.900000E-01   1.00800           0
      3668 MEMB     21       POPC     C311     CTL2    -0.180000       12.0110           0
      3669 MEMB     21       POPC     H11X     HAL2     0.900000E-01   1.00800           0
      3670 MEMB     21       POPC     H11Y     HAL2     0.900000E-01   1.00800           0
      3671 MEMB     21       POPC     C312     CTL2    -0.180000       12.0110           0
      3672 MEMB     21       POPC     H12X     HAL2     0.900000E-01   1.00800           0
      3673 MEMB     21       POPC     H12Y     HAL2     0.900000E-01   1.00800           0
      3674 MEMB     21       POPC     C313     CTL2    -0.180000       12.0110           0
      3675 MEMB     21       POPC     H13X     HAL2     0.900000E-01   1.00800           0
      3676 MEMB     21       POPC     H13Y     HAL2     0.900000E-01   1.00800           0
      3677 MEMB     21       POPC     C314     CTL2    -0.180000       12.0110           0
      3678 MEMB     21       POPC     H14X     HAL2     0.900000E-01   1.00800           0
      3679 MEMB     21       POPC     H14Y     HAL2     0.900000E-01   1.00800           0
      3680 MEMB     21       POPC     C315     CTL2    -0.180000       12.0110           0
      3681 MEMB     21       POPC     H15X     HAL2     0.900000E-01   1.00800           0
      3682 MEMB     21       POPC     H15Y     HAL2     0.900000E-01   1.00800           0
      3683 MEMB     21       POPC     C316     CTL3    -0.270000       12.0110           0
      3684 MEMB     21       POPC     H16X     HAL3     0.900000E-01   1.00800           0
      3685 MEMB     21       POPC     H16Y     HAL3     0.900000E-01   1.00800           0
      3686 MEMB     21       POPC     H16Z     HAL3     0.900000E-01   1.00800           0
      3687 MEMB     22       POPC     N        NTL     -0.600000       14.0070           0
      3688 MEMB     22       POPC     C12      CTL2    -0.100000       12.0110           0
      3689 MEMB     22       POPC     H12A     HL       0.250000       1.00800           0
      3690 MEMB     22       POPC     H12B     HL       0.250000       1.00800           0
      3691 MEMB     22       POPC     C13      CTL5    -0.350000       12.0110           0
      3692 MEMB     22       POPC     H13A     HL       0.250000       1.00800           0
      3693 MEMB     22       POPC     H13B     HL       0.250000       1.00800           0
      3694 MEMB     22       POPC     H13C     HL       0.250000       1.00800           0
      3695 MEMB     22       POPC     C14      CTL5    -0.350000       12.0110           0
      3696 MEMB     22       POPC     H14A     HL       0.250000       1.00800           0
      3697 MEMB     22       POPC     H14B     HL       0.250000       1.00800           0
      3698 MEMB     22       POPC     H14C     HL       0.250000       1.00800           0
      3699 MEMB     22       POPC     C15      CTL5    -0.350000       12.0110           0
      3700 MEMB     22       POPC     H15A     HL       0.250000       1.00800           0
      3701 MEMB     22       POPC     H15B     HL       0.250000       1.00800           0
      3702 MEMB     22       POPC     H15C     HL       0.250000       1.00800           0
      3703 MEMB     22       POPC     C11      CTL2    -0.800000E-01   12.0110           0
      3704 MEMB     22       POPC     H11A     HAL2     0.900000E-01   1.00800           0
      3705 MEMB     22       POPC     H11B     HAL2     0.900000E-01   1.00800           0
      3706 MEMB     22       POPC     P        PL        1.50000       30.9740           0
      3707 MEMB     22       POPC     O13      O2L     -0.780000       15.9994           0
      3708 MEMB     22       POPC     O14      O2L     -0.780000       15.9994           0
      3709 MEMB     22       POPC     O12      OSLP    -0.570000       15.9994           0
      3710 MEMB     22       POPC     O11      OSLP    -0.570000       15.9994           0
      3711 MEMB     22       POPC     C1       CTL2    -0.800000E-01   12.0110           0
      3712 MEMB     22       POPC     HA       HAL2     0.900000E-01   1.00800           0
      3713 MEMB     22       POPC     HB       HAL2     0.900000E-01   1.00800           0
      3714 MEMB     22       POPC     C2       CTL1     0.170000       12.0110           0
      3715 MEMB     22       POPC     HS       HAL1     0.900000E-01   1.00800           0
      3716 MEMB     22       POPC     O21      OSL     -0.490000       15.9994           0
      3717 MEMB     22       POPC     C21      CL       0.900000       12.0110           0
      3718 MEMB     22       POPC     O22      OBL     -0.630000       15.9994           0
      3719 MEMB     22       POPC     C22      CTL2    -0.220000       12.0110           0
      3720 MEMB     22       POPC     H2R      HAL2     0.900000E-01   1.00800           0
      3721 MEMB     22       POPC     H2S      HAL2     0.900000E-01   1.00800           0
      3722 MEMB     22       POPC     C3       CTL2     0.800000E-01   12.0110           0
      3723 MEMB     22       POPC     HX       HAL2     0.900000E-01   1.00800           0
      3724 MEMB     22       POPC     HY       HAL2     0.900000E-01   1.00800           0
      3725 MEMB     22       POPC     O31      OSL     -0.490000       15.9994           0
      3726 MEMB     22       POPC     C31      CL       0.900000       12.0110           0
      3727 MEMB     22       POPC     O32      OBL     -0.630000       15.9994           0
      3728 MEMB     22       POPC     C32      CTL2    -0.220000       12.0110           0
      3729 MEMB     22       POPC     H2X      HAL2     0.900000E-01   1.00800           0
      3730 MEMB     22       POPC     H2Y      HAL2     0.900000E-01   1.00800           0
      3731 MEMB     22       POPC     C23      CTL2    -0.180000       12.0110           0
      3732 MEMB     22       POPC     H3R      HAL2     0.900000E-01   1.00800           0
      3733 MEMB     22       POPC     H3S      HAL2     0.900000E-01   1.00800           0
      3734 MEMB     22       POPC     C24      CTL2    -0.180000       12.0110           0
      3735 MEMB     22       POPC     H4R      HAL2     0.900000E-01   1.00800           0
      3736 MEMB     22       POPC     H4S      HAL2     0.900000E-01   1.00800           0
      3737 MEMB     22       POPC     C25      CTL2    -0.180000       12.0110           0
      3738 MEMB     22       POPC     H5R      HAL2     0.900000E-01   1.00800           0
      3739 MEMB     22       POPC     H5S      HAL2     0.900000E-01   1.00800           0
      3740 MEMB     22       POPC     C26      CTL2    -0.180000       12.0110           0
      3741 MEMB     22       POPC     H6R      HAL2     0.900000E-01   1.00800           0
      3742 MEMB     22       POPC     H6S      HAL2     0.900000E-01   1.00800           0
      3743 MEMB     22       POPC     C27      CTL2    -0.180000       12.0110           0
      3744 MEMB     22       POPC     H7R      HAL2     0.900000E-01   1.00800           0
      3745 MEMB     22       POPC     H7S      HAL2     0.900000E-01   1.00800           0
      3746 MEMB     22       POPC     C28      CTL2    -0.180000       12.0110           0
      3747 MEMB     22       POPC     H8R      HAL2     0.900000E-01   1.00800           0
      3748 MEMB     22       POPC     H8S      HAL2     0.900000E-01   1.00800           0
      3749 MEMB     22       POPC     C29      CEL1    -0.150000       12.0110           0
      3750 MEMB     22       POPC     H91      HEL1     0.150000       1.00800           0
      3751 MEMB     22       POPC     C210     CEL1    -0.150000       12.0110           0
      3752 MEMB     22       POPC     H101     HEL1     0.150000       1.00800           0
      3753 MEMB     22       POPC     C211     CTL2    -0.180000       12.0110           0
      3754 MEMB     22       POPC     H11R     HAL2     0.900000E-01   1.00800           0
      3755 MEMB     22       POPC     H11S     HAL2     0.900000E-01   1.00800           0
      3756 MEMB     22       POPC     C212     CTL2    -0.180000       12.0110           0
      3757 MEMB     22       POPC     H12R     HAL2     0.900000E-01   1.00800           0
      3758 MEMB     22       POPC     H12S     HAL2     0.900000E-01   1.00800           0
      3759 MEMB     22       POPC     C213     CTL2    -0.180000       12.0110           0
      3760 MEMB     22       POPC     H13R     HAL2     0.900000E-01   1.00800           0
      3761 MEMB     22       POPC     H13S     HAL2     0.900000E-01   1.00800           0
      3762 MEMB     22       POPC     C214     CTL2    -0.180000       12.0110           0
      3763 MEMB     22       POPC     H14R     HAL2     0.900000E-01   1.00800           0
      3764 MEMB     22       POPC     H14S     HAL2     0.900000E-01   1.00800           0
      3765 MEMB     22       POPC     C215     CTL2    -0.180000       12.0110           0
      3766 MEMB     22       POPC     H15R     HAL2     0.900000E-01   1.00800           0
      3767 MEMB     22       POPC     H15S     HAL2     0.900000E-01   1.00800           0
      3768 MEMB     22       POPC     C216     CTL2    -0.180000       12.0110           0
      3769 MEMB     22       POPC     H16R     HAL2     0.900000E-01   1.00800           0
      3770 MEMB     22       POPC     H16S     HAL2     0.900000E-01   1.00800           0
      3771 MEMB     22       POPC     C217     CTL2    -0.180000       12.0110           0
      3772 MEMB     22       POPC     H17R     HAL2     0.900000E-01   1.00800           0
      3773 MEMB     22       POPC     H17S     HAL2     0.900000E-01   1.00800           0
      3774 MEMB     22       POPC     C218     CTL3    -0.270000       12.0110           0
      3775 MEMB     22       POPC     H18R     HAL3     0.900000E-01   1.00800           0
      3776 MEMB     22       POPC     H18S     HAL3     0.900000E-01   1.00800           0
      3777 MEMB     22       POPC     H18T     HAL3     0.900000E-01   1.00800           0
      3778 MEMB     22       POPC     C33      CTL2    -0.180000       12.0110           0
      3779 MEMB     22       POPC     H3X      HAL2     0.900000E-01   1.00800           0
      3780 MEMB     22       POPC     H3Y      HAL2     0.900000E-01   1.00800           0
      3781 MEMB     22       POPC     C34      CTL2    -0.180000       12.0110           0
      3782 MEMB     22       POPC     H4X      HAL2     0.900000E-01   1.00800           0
      3783 MEMB     22       POPC     H4Y      HAL2     0.900000E-01   1.00800           0
      3784 MEMB     22       POPC     C35      CTL2    -0.180000       12.0110           0
      3785 MEMB     22       POPC     H5X      HAL2     0.900000E-01   1.00800           0
      3786 MEMB     22       POPC     H5Y      HAL2     0.900000E-01   1.00800           0
      3787 MEMB     22       POPC     C36      CTL2    -0.180000       12.0110           0
      3788 MEMB     22       POPC     H6X      HAL2     0.900000E-01   1.00800           0
      3789 MEMB     22       POPC     H6Y      HAL2     0.900000E-01   1.00800           0
      3790 MEMB     22       POPC     C37      CTL2    -0.180000       12.0110           0
      3791 MEMB     22       POPC     H7X      HAL2     0.900000E-01   1.00800           0
      3792 MEMB     22       POPC     H7Y      HAL2     0.900000E-01   1.00800           0
      3793 MEMB     22       POPC     C38      CTL2    -0.180000       12.0110           0
      3794 MEMB     22       POPC     H8X      HAL2     0.900000E-01   1.00800           0
      3795 MEMB     22       POPC     H8Y      HAL2     0.900000E-01   1.00800           0
      3796 MEMB     22       POPC     C39      CTL2    -0.180000       12.0110           0
      3797 MEMB     22       POPC     H9X      HAL2     0.900000E-01   1.00800           0
      3798 MEMB     22       POPC     H9Y      HAL2     0.900000E-01   1.00800           0
      3799 MEMB     22       POPC     C310     CTL2    -0.180000       12.0110           0
      3800 MEMB     22       POPC     H10X     HAL2     0.900000E-01   1.00800           0
      3801 MEMB     22       POPC     H10Y     HAL2     0.900000E-01   1.00800           0
      3802 MEMB     22       POPC     C311     CTL2    -0.180000       12.0110           0
      3803 MEMB     22       POPC     H11X     HAL2     0.900000E-01   1.00800           0
      3804 MEMB     22       POPC     H11Y     HAL2     0.900000E-01   1.00800           0
      3805 MEMB     22       POPC     C312     CTL2    -0.180000       12.0110           0
      3806 MEMB     22       POPC     H12X     HAL2     0.900000E-01   1.00800           0
      3807 MEMB     22       POPC     H12Y     HAL2     0.900000E-01   1.00800           0
      3808 MEMB     22       POPC     C313     CTL2    -0.180000       12.0110           0
      3809 MEMB     22       POPC     H13X     HAL2     0.900000E-01   1.00800           0
      3810 MEMB     22       POPC     H13Y     HAL2     0.900000E-01   1.00800           0
      3811 MEMB     22       POPC     C314     CTL2    -0.180000       12.0110           0
      3812 MEMB     22       POPC     H14X     HAL2     0.900000E-01   1.00800           0
      3813 MEMB     22       POPC     H14Y     HAL2     0.900000E-01   1.00800           0
      3814 MEMB     22       POPC     C315     CTL2    -0.180000       12.0110           0
      3815 MEMB     22       POPC     H15X     HAL2     0.900000E-01   1.00800           0
      3816 MEMB     22       POPC     H15Y     HAL2     0.900000E-01   1.00800           0
      3817 MEMB     22       POPC     C316     CTL3    -0.270000       12.0110           0
      3818 MEMB     22       POPC     H16X     HAL3     0.900000E-01   1.00800           0
      3819 MEMB     22       POPC     H16Y     HAL3     0.900000E-01   1.00800           0
      3820 MEMB     22       POPC     H16Z     HAL3     0.900000E-01   1.00800           0
      3821 MEMB     23       POPC     N        NTL     -0.600000       14.0070           0
      3822 MEMB     23       POPC     C12      CTL2    -0.100000       12.0110           0
      3823 MEMB     23       POPC     H12A     HL       0.250000       1.00800           0
      3824 MEMB     23       POPC     H12B     HL       0.250000       1.00800           0
      3825 MEMB     23       POPC     C13      CTL5    -0.350000       12.0110           0
      3826 MEMB     23       POPC     H13A     HL       0.250000       1.00800           0
      3827 MEMB     23       POPC     H13B     HL       0.250000       1.00800           0
      3828 MEMB     23       POPC     H13C     HL       0.250000       1.00800           0
      3829 MEMB     23       POPC     C14      CTL5    -0.350000       12.0110           0
      3830 MEMB     23       POPC     H14A     HL       0.250000       1.00800           0
      3831 MEMB     23       POPC     H14B     HL       0.250000       1.00800           0
      3832 MEMB     23       POPC     H14C     HL       0.250000       1.00800           0
      3833 MEMB     23       POPC     C15      CTL5    -0.350000       12.0110           0
      3834 MEMB     23       POPC     H15A     HL       0.250000       1.00800           0
      3835 MEMB     23       POPC     H15B     HL       0.250000       1.00800           0
      3836 MEMB     23       POPC     H15C     HL       0.250000       1.00800           0
      3837 MEMB     23       POPC     C11      CTL2    -0.800000E-01   12.0110           0
      3838 MEMB     23       POPC     H11A     HAL2     0.900000E-01   1.00800           0
      3839 MEMB     23       POPC     H11B     HAL2     0.900000E-01   1.00800           0
      3840 MEMB     23       POPC     P        PL        1.50000       30.9740           0
      3841 MEMB     23       POPC     O13      O2L     -0.780000       15.9994           0
      3842 MEMB     23       POPC     O14      O2L     -0.780000       15.9994           0
      3843 MEMB     23       POPC     O12      OSLP    -0.570000       15.9994           0
      3844 MEMB     23       POPC     O11      OSLP    -0.570000       15.9994           0
      3845 MEMB     23       POPC     C1       CTL2    -0.800000E-01   12.0110           0
      3846 MEMB     23       POPC     HA       HAL2     0.900000E-01   1.00800           0
      3847 MEMB     23       POPC     HB       HAL2     0.900000E-01   1.00800           0
      3848 MEMB     23       POPC     C2       CTL1     0.170000       12.0110           0
      3849 MEMB     23       POPC     HS       HAL1     0.900000E-01   1.00800           0
      3850 MEMB     23       POPC     O21      OSL     -0.490000       15.9994           0
      3851 MEMB     23       POPC     C21      CL       0.900000       12.0110           0
      3852 MEMB     23       POPC     O22      OBL     -0.630000       15.9994           0
      3853 MEMB     23       POPC     C22      CTL2    -0.220000       12.0110           0
      3854 MEMB     23       POPC     H2R      HAL2     0.900000E-01   1.00800           0
      3855 MEMB     23       POPC     H2S      HAL2     0.900000E-01   1.00800           0
      3856 MEMB     23       POPC     C3       CTL2     0.800000E-01   12.0110           0
      3857 MEMB     23       POPC     HX       HAL2     0.900000E-01   1.00800           0
      3858 MEMB     23       POPC     HY       HAL2     0.900000E-01   1.00800           0
      3859 MEMB     23       POPC     O31      OSL     -0.490000       15.9994           0
      3860 MEMB     23       POPC     C31      CL       0.900000       12.0110           0
      3861 MEMB     23       POPC     O32      OBL     -0.630000       15.9994           0
      3862 MEMB     23       POPC     C32      CTL2    -0.220000       12.0110           0
      3863 MEMB     23       POPC     H2X      HAL2     0.900000E-01   1.00800           0
      3864 MEMB     23       POPC     H2Y      HAL2     0.900000E-01   1.00800           0
      3865 MEMB     23       POPC     C23      CTL2    -0.180000       12.0110           0
      3866 MEMB     23       POPC     H3R      HAL2     0.900000E-01   1.00800           0
      3867 MEMB     23       POPC     H3S      HAL2     0.900000E-01   1.00800           0
      3868 MEMB     23       POPC     C24      CTL2    -0.180000       12.0110           0
      3869 MEMB     23       POPC     H4R      HAL2     0.900000E-01   1.00800           0
      3870 MEMB     23       POPC     H4S      HAL2     0.900000E-01   1.00800           0
      3871 MEMB     23       POPC     C25      CTL2    -0.180000       12.0110           0
      3872 MEMB     23       POPC     H5R      HAL2     0.900000E-01   1.00800           0
      3873 MEMB     23       POPC     H5S      HAL2     0.900000E-01   1.00800           0
      3874 MEMB     23       POPC     C26      CTL2    -0.180000       12.0110           0
      3875 MEMB     23       POPC     H6R      HAL2     0.900000E-01   1.00800           0
      3876 MEMB     23       POPC     H6S      HAL2     0.900000E-01   1.00800           0
      3877 MEMB     23       POPC     C27      CTL2    -0.180000       12.0110           0
      3878 MEMB     23       POPC     H7R      HAL2     0.900000E-01   1.00800           0
      3879 MEMB     23       POPC     H7S      HAL2     0.900000E-01   1.00800           0
      3880 MEMB     23       POPC     C28      CTL2    -0.180000       12.0110           0
      3881 MEMB     23       POPC     H8R      HAL2     0.900000E-01   1.00800           0
      3882 MEMB     23       POPC     H8S      HAL2     0.900000E-01   1.00800           0
      3883 MEMB     23       POPC     C29      CEL1    -0.150000       12.0110           0
      3884 MEMB     23       POPC     H91      HEL1     0.150000       1.00800           0
      3885 MEMB     23       POPC     C210     CEL1    -0.150000       12.0110           0
      3886 MEMB     23       POPC     H101     HEL1     0.150000       1.00800           0
      3887 MEMB     23       POPC     C211     CTL2    -0.180000       12.0110           0
      3888 MEMB     23       POPC     H11R     HAL2     0.900000E-01   1.00800           0
      3889 MEMB     23       POPC     H11S     HAL2     0.900000E-01   1.00800           0
      3890 MEMB     23       POPC     C212     CTL2    -0.180000       12.0110           0
      3891 MEMB     23       POPC     H12R     HAL2     0.900000E-01   1.00800           0
      3892 MEMB     23       POPC     H12S     HAL2     0.900000E-01   1.00800           0
      3893 MEMB     23       POPC     C213     CTL2    -0.180000       12.0110           0
      3894 MEMB     23       POPC     H13R     HAL2     0.900000E-01   1.00800           0
      3895 MEMB     23       POPC     H13S     HAL2     0.900000E-01   1.00800           0
      3896 MEMB     23       POPC     C214     CTL2    -0.180000       12.0110           0
      3897 MEMB     23       POPC     H14R     HAL2     0.900000E-01   1.00800           0
      3898 MEMB     23       POPC     H14S     HAL2     0.900000E-01   1.00800           0
      3899 MEMB     23       POPC     C215     CTL2    -0.180000       12.0110           0
      3900 MEMB     23       POPC     H15R     HAL2     0.900000E-01   1.00800           0
      3901 MEMB     23       POPC     H15S     HAL2     0.900000E-01   1.00800           0
      3902 MEMB     23       POPC     C216     CTL2    -0.180000       12.0110           0
      3903 MEMB     23       POPC     H16R     HAL2     0.900000E-01   1.00800           0
      3904 MEMB     23       POPC     H16S     HAL2     0.900000E-01   1.00800           0
      3905 MEMB     23       POPC     C217     CTL2    -0.180000       12.0110           0
      3906 MEMB     23       POPC     H17R     HAL2     0.900000E-01   1.00800           0
      3907 MEMB     23       POPC     H17S     HAL2     0.900000E-01   1.00800           0
      3908 MEMB     23       POPC     C218     CTL3    -0.270000       12.0110           0
      3909 MEMB     23       POPC     H18R     HAL3     0.900000E-01   1.00800           0
      3910 MEMB     23       POPC     H18S     HAL3     0.900000E-01   1.00800           0
      3911 MEMB     23       POPC     H18T     HAL3     0.900000E-01   1.00800           0
      3912 MEMB     23       POPC     C33      CTL2    -0.180000       12.0110           0
      3913 MEMB     23       POPC     H3X      HAL2     0.900000E-01   1.00800           0
      3914 MEMB     23       POPC     H3Y      HAL2     0.900000E-01   1.00800           0
      3915 MEMB     23       POPC     C34      CTL2    -0.180000       12.0110           0
      3916 MEMB     23       POPC     H4X      HAL2     0.900000E-01   1.00800           0
      3917 MEMB     23       POPC     H4Y      HAL2     0.900000E-01   1.00800           0
      3918 MEMB     23       POPC     C35      CTL2    -0.180000       12.0110           0
      3919 MEMB     23       POPC     H5X      HAL2     0.900000E-01   1.00800           0
      3920 MEMB     23       POPC     H5Y      HAL2     0.900000E-01   1.00800           0
      3921 MEMB     23       POPC     C36      CTL2    -0.180000       12.0110           0
      3922 MEMB     23       POPC     H6X      HAL2     0.900000E-01   1.00800           0
      3923 MEMB     23       POPC     H6Y      HAL2     0.900000E-01   1.00800           0
      3924 MEMB     23       POPC     C37      CTL2    -0.180000       12.0110           0
      3925 MEMB     23       POPC     H7X      HAL2     0.900000E-01   1.00800           0
      3926 MEMB     23       POPC     H7Y      HAL2     0.900000E-01   1.00800           0
      3927 MEMB     23       POPC     C38      CTL2    -0.180000       12.0110           0
      3928 MEMB     23       POPC     H8X      HAL2     0.900000E-01   1.00800           0
      3929 MEMB     23       POPC     H8Y      HAL2     0.900000E-01   1.00800           0
      3930 MEMB     23       POPC     C39      CTL2    -0.180000       12.0110           0
      3931 MEMB     23       POPC     H9X      HAL2     0.900000E-01   1.00800           0
      3932 MEMB     23       POPC     H9Y      HAL2     0.900000E-01   1.00800           0
      3933 MEMB     23       POPC     C310     CTL2    -0.180000       12.0110           0
      3934 MEMB     23       POPC     H10X     HAL2     0.900000E-01   1.00800           0
      3935 MEMB     23       POPC     H10Y     HAL2     0.900000E-01   1.00800           0
      3936 MEMB     23       POPC     C311     CTL2    -0.180000       12.0110           0
      3937 MEMB     23       POPC     H11X     HAL2     0.900000E-01   1.00800           0
      3938 MEMB     23       POPC     H11Y     HAL2     0.900000E-01   1.00800           0
      3939 MEMB     23       POPC     C312     CTL2    -0.180000       12.0110           0
      3940 MEMB     23       POPC     H12X     HAL2     0.900000E-01   1.00800           0
      3941 MEMB     23       POPC     H12Y     HAL2     0.900000E-01   1.00800           0
      3942 MEMB     23       POPC     C313     CTL2    -0.180000       12.0110           0
      3943 MEMB     23       POPC     H13X     HAL2     0.900000E-01   1.00800           0
      3944 MEMB     23       POPC     H13Y     HAL2     0.900000E-01   1.00800           0
      3945 MEMB     23       POPC     C314     CTL2    -0.180000       12.0110           0
      3946 MEMB     23       POPC     H14X     HAL2     0.900000E-01   1.00800           0
      3947 MEMB     23       POPC     H14Y     HAL2     0.900000E-01   1.00800           0
      3948 MEMB     23       POPC     C315     CTL2    -0.180000       12.0110           0
      3949 MEMB     23       POPC     H15X     HAL2     0.900000E-01   1.00800           0
      3950 MEMB     23       POPC     H15Y     HAL2     0.900000E-01   1.00800           0
      3951 MEMB     23       POPC     C316     CTL3    -0.270000       12.0110           0
      3952 MEMB     23       POPC     H16X     HAL3     0.900000E-01   1.00800           0
      3953 MEMB     23       POPC     H16Y     HAL3     0.900000E-01   1.00800           0
      3954 MEMB     23       POPC     H16Z     HAL3     0.900000E-01   1.00800           0
      3955 MEMB     24       POPC     N        NTL     -0.600000       14.0070           0
      3956 MEMB     24       POPC     C12      CTL2    -0.100000       12.0110           0
      3957 MEMB     24       POPC     H12A     HL       0.250000       1.00800           0
      3958 MEMB     24       POPC     H12B     HL       0.250000       1.00800           0
      3959 MEMB     24       POPC     C13      CTL5    -0.350000       12.0110           0
      3960 MEMB     24       POPC     H13A     HL       0.250000       1.00800           0
      3961 MEMB     24       POPC     H13B     HL       0.250000       1.00800           0
      3962 MEMB     24       POPC     H13C     HL       0.250000       1.00800           0
      3963 MEMB     24       POPC     C14      CTL5    -0.350000       12.0110           0
      3964 MEMB     24       POPC     H14A     HL       0.250000       1.00800           0
      3965 MEMB     24       POPC     H14B     HL       0.250000       1.00800           0
      3966 MEMB     24       POPC     H14C     HL       0.250000       1.00800           0
      3967 MEMB     24       POPC     C15      CTL5    -0.350000       12.0110           0
      3968 MEMB     24       POPC     H15A     HL       0.250000       1.00800           0
      3969 MEMB     24       POPC     H15B     HL       0.250000       1.00800           0
      3970 MEMB     24       POPC     H15C     HL       0.250000       1.00800           0
      3971 MEMB     24       POPC     C11      CTL2    -0.800000E-01   12.0110           0
      3972 MEMB     24       POPC     H11A     HAL2     0.900000E-01   1.00800           0
      3973 MEMB     24       POPC     H11B     HAL2     0.900000E-01   1.00800           0
      3974 MEMB     24       POPC     P        PL        1.50000       30.9740           0
      3975 MEMB     24       POPC     O13      O2L     -0.780000       15.9994           0
      3976 MEMB     24       POPC     O14      O2L     -0.780000       15.9994           0
      3977 MEMB     24       POPC     O12      OSLP    -0.570000       15.9994           0
      3978 MEMB     24       POPC     O11      OSLP    -0.570000       15.9994           0
      3979 MEMB     24       POPC     C1       CTL2    -0.800000E-01   12.0110           0
      3980 MEMB     24       POPC     HA       HAL2     0.900000E-01   1.00800           0
      3981 MEMB     24       POPC     HB       HAL2     0.900000E-01   1.00800           0
      3982 MEMB     24       POPC     C2       CTL1     0.170000       12.0110           0
      3983 MEMB     24       POPC     HS       HAL1     0.900000E-01   1.00800           0
      3984 MEMB     24       POPC     O21      OSL     -0.490000       15.9994           0
      3985 MEMB     24       POPC     C21      CL       0.900000       12.0110           0
      3986 MEMB     24       POPC     O22      OBL     -0.630000       15.9994           0
      3987 MEMB     24       POPC     C22      CTL2    -0.220000       12.0110           0
      3988 MEMB     24       POPC     H2R      HAL2     0.900000E-01   1.00800           0
      3989 MEMB     24       POPC     H2S      HAL2     0.900000E-01   1.00800           0
      3990 MEMB     24       POPC     C3       CTL2     0.800000E-01   12.0110           0
      3991 MEMB     24       POPC     HX       HAL2     0.900000E-01   1.00800           0
      3992 MEMB     24       POPC     HY       HAL2     0.900000E-01   1.00800           0
      3993 MEMB     24       POPC     O31      OSL     -0.490000       15.9994           0
      3994 MEMB     24       POPC     C31      CL       0.900000       12.0110           0
      3995 MEMB     24       POPC     O32      OBL     -0.630000       15.9994           0
      3996 MEMB     24       POPC     C32      CTL2    -0.220000       12.0110           0
      3997 MEMB     24       POPC     H2X      HAL2     0.900000E-01   1.00800           0
      3998 MEMB     24       POPC     H2Y      HAL2     0.900000E-01   1.00800           0
      3999 MEMB     24       POPC     C23      CTL2    -0.180000       12.0110           0
      4000 MEMB     24       POPC     H3R      HAL2     0.900000E-01   1.00800           0
      4001 MEMB     24       POPC     H3S      HAL2     0.900000E-01   1.00800           0
      4002 MEMB     24       POPC     C24      CTL2    -0.180000       12.0110           0
      4003 MEMB     24       POPC     H4R      HAL2     0.900000E-01   1.00800           0
      4004 MEMB     24       POPC     H4S      HAL2     0.900000E-01   1.00800           0
      4005 MEMB     24       POPC     C25      CTL2    -0.180000       12.0110           0
      4006 MEMB     24       POPC     H5R      HAL2     0.900000E-01   1.00800           0
      4007 MEMB     24       POPC     H5S      HAL2     0.900000E-01   1.00800           0
      4008 MEMB     24       POPC     C26      CTL2    -0.180000       12.0110           0
      4009 MEMB     24       POPC     H6R      HAL2     0.900000E-01   1.00800           0
      4010 MEMB     24       POPC     H6S      HAL2     0.900000E-01   1.00800           0
      4011 MEMB     24       POPC     C27      CTL2    -0.180000       12.0110           0
      4012 MEMB     24       POPC     H7R      HAL2     0.900000E-01   1.00800           0
      4013 MEMB     24       POPC     H7S      HAL2     0.900000E-01   1.00800           0
      4014 MEMB     24       POPC     C28      CTL2    -0.180000       12.0110           0
      4015 MEMB     24       POPC     H8R      HAL2     0.900000E-01   1.00800           0
      4016 MEMB     24       POPC     H8S      HAL2     0.900000E-01   1.00800           0
      4017 MEMB     24       POPC     C29      CEL1    -0.150000       12.0110           0
      4018 MEMB     24       POPC     H91      HEL1     0.150000       1.00800           0
      4019 MEMB     24       POPC     C210     CEL1    -0.150000       12.0110           0
      4020 MEMB     24       POPC     H101     HEL1     0.150000       1.00800           0
      4021 MEMB     24       POPC     C211     CTL2    -0.180000       12.0110           0
      4022 MEMB     24       POPC     H11R     HAL2     0.900000E-01   1.00800           0
      4023 MEMB     24       POPC     H11S     HAL2     0.900000E-01   1.00800           0
      4024 MEMB     24       POPC     C212     CTL2    -0.180000       12.0110           0
      4025 MEMB     24       POPC     H12R     HAL2     0.900000E-01   1.00800           0
      4026 MEMB     24       POPC     H12S     HAL2     0.900000E-01   1.00800           0
      4027 MEMB     24       POPC     C213     CTL2    -0.180000       12.0110           0
      4028 MEMB     24       POPC     H13R     HAL2     0.900000E-01   1.00800           0
      4029 MEMB     24       POPC     H13S     HAL2     0.900000E-01   1.00800           0
      4030 MEMB     24       POPC     C214     CTL2    -0.180000       12.0110           0
      4031 MEMB     24       POPC     H14R     HAL2     0.900000E-01   1.00800           0
      4032 MEMB     24       POPC     H14S     HAL2     0.900000E-01   1.00800           0
      4033 MEMB     24       POPC     C215     CTL2    -0.180000       12.0110           0
      4034 MEMB     24       POPC     H15R     HAL2     0.900000E-01   1.00800           0
      4035 MEMB     24       POPC     H15S     HAL2     0.900000E-01   1.00800           0
      4036 MEMB     24       POPC     C216     CTL2    -0.180000       12.0110           0
      4037 MEMB     24       POPC     H16R     HAL2     0.900000E-01   1.00800           0
      4038 MEMB     24       POPC     H16S     HAL2     0.900000E-01   1.00800           0
      4039 MEMB     24       POPC     C217     CTL2    -0.180000       12.0110           0
      4040 MEMB     24       POPC     H17R     HAL2     0.900000E-01   1.00800           0
      4041 MEMB     24       POPC     H17S     HAL2     0.900000E-01   1.00800           0
      4042 MEMB     24       POPC     C218     CTL3    -0.270000       12.0110           0
      4043 MEMB     24       POPC     H18R     HAL3     0.900000E-01   1.00800           0
      4044 MEMB     24       POPC     H18S     HAL3     0.900000E-01   1.00800           0
      4045 MEMB     24       POPC     H18T     HAL3     0.900000E-01   1.00800           0
      4046 MEMB     24       POPC     C33      CTL2    -0.180000       12.0110           0
      4047 MEMB     24       POPC     H3X      HAL2     0.900000E-01   1.00800           0
      4048 MEMB     24       POPC     H3Y      HAL2     0.900000E-01   1.00800           0
      4049 MEMB     24       POPC     C34      CTL2    -0.180000       12.0110           0
      4050 MEMB     24       POPC     H4X      HAL2     0.900000E-01   1.00800           0
      4051 MEMB     24       POPC     H4Y      HAL2     0.900000E-01   1.00800           0
      4052 MEMB     24       POPC     C35      CTL2    -0.180000       12.0110           0
      4053 MEMB     24       POPC     H5X      HAL2     0.900000E-01   1.00800           0
      4054 MEMB     24       POPC     H5Y      HAL2     0.900000E-01   1.00800           0
      4055 MEMB     24       POPC     C36      CTL2    -0.180000       12.0110           0
      4056 MEMB     24       POPC     H6X      HAL2     0.900000E-01   1.00800           0
      4057 MEMB     24       POPC     H6Y      HAL2     0.900000E-01   1.00800           0
      4058 MEMB     24       POPC     C37      CTL2    -0.180000       12.0110           0
      4059 MEMB     24       POPC     H7X      HAL2     0.900000E-01   1.00800           0
      4060 MEMB     24       POPC     H7Y      HAL2     0.900000E-01   1.00800           0
      4061 MEMB     24       POPC     C38      CTL2    -0.180000       12.0110           0
      4062 MEMB     24       POPC     H8X      HAL2     0.900000E-01   1.00800           0
      4063 MEMB     24       POPC     H8Y      HAL2     0.900000E-01   1.00800           0
      4064 MEMB     24       POPC     C39      CTL2    -0.180000       12.0110           0
      4065 MEMB     24       POPC     H9X      HAL2     0.900000E-01   1.00800           0
      4066 MEMB     24       POPC     H9Y      HAL2     0.900000E-01   1.00800           0
      4067 MEMB     24       POPC     C310     CTL2    -0.180000       12.0110           0
      4068 MEMB     24       POPC     H10X     HAL2     0.900000E-01   1.00800           0
      4069 MEMB     24       POPC     H10Y     HAL2     0.900000E-01   1.00800           0
      4070 MEMB     24       POPC     C311     CTL2    -0.180000       12.0110           0
      4071 MEMB     24       POPC     H11X     HAL2     0.900000E-01   1.00800           0
      4072 MEMB     24       POPC     H11Y     HAL2     0.900000E-01   1.00800           0
      4073 MEMB     24       POPC     C312     CTL2    -0.180000       12.0110           0
      4074 MEMB     24       POPC     H12X     HAL2     0.900000E-01   1.00800           0
      4075 MEMB     24       POPC     H12Y     HAL2     0.900000E-01   1.00800           0
      4076 MEMB     24       POPC     C313     CTL2    -0.180000       12.0110           0
      4077 MEMB     24       POPC     H13X     HAL2     0.900000E-01   1.00800           0
      4078 MEMB     24       POPC     H13Y     HAL2     0.900000E-01   1.00800           0
      4079 MEMB     24       POPC     C314     CTL2    -0.180000       12.0110           0
      4080 MEMB     24       POPC     H14X     HAL2     0.900000E-01   1.00800           0
      4081 MEMB     24       POPC     H14Y     HAL2     0.900000E-01   1.00800           0
      4082 MEMB     24       POPC     C315     CTL2    -0.180000       12.0110           0
      4083 MEMB     24       POPC     H15X     HAL2     0.900000E-01   1.00800           0
      4084 MEMB     24       POPC     H15Y     HAL2     0.900000E-01   1.00800           0
      4085 MEMB     24       POPC     C316     CTL3    -0.270000       12.0110           0
      4086 MEMB     24       POPC     H16X     HAL3     0.900000E-01   1.00800           0
      4087 MEMB     24       POPC     H16Y     HAL3     0.900000E-01   1.00800           0
      4088 MEMB     24       POPC     H16Z     HAL3     0.900000E-01   1.00800           0
      4089 MEMB     25       POPC     N        NTL     -0.600000       14.0070           0
      4090 MEMB     25       POPC     C12      CTL2    -0.100000       12.0110           0
      4091 MEMB     25       POPC     H12A     HL       0.250000       1.00800           0
      4092 MEMB     25       POPC     H12B     HL       0.250000       1.00800           0
      4093 MEMB     25       POPC     C13      CTL5    -0.350000       12.0110           0
      4094 MEMB     25       POPC     H13A     HL       0.250000       1.00800           0
      4095 MEMB     25       POPC     H13B     HL       0.250000       1.00800           0
      4096 MEMB     25       POPC     H13C     HL       0.250000       1.00800           0
      4097 MEMB     25       POPC     C14      CTL5    -0.350000       12.0110           0
      4098 MEMB     25       POPC     H14A     HL       0.250000       1.00800           0
      4099 MEMB     25       POPC     H14B     HL       0.250000       1.00800           0
      4100 MEMB     25       POPC     H14C     HL       0.250000       1.00800           0
      4101 MEMB     25       POPC     C15      CTL5    -0.350000       12.0110           0
      4102 MEMB     25       POPC     H15A     HL       0.250000       1.00800           0
      4103 MEMB     25       POPC     H15B     HL       0.250000       1.00800           0
      4104 MEMB     25       POPC     H15C     HL       0.250000       1.00800           0
      4105 MEMB     25       POPC     C11      CTL2    -0.800000E-01   12.0110           0
      4106 MEMB     25       POPC     H11A     HAL2     0.900000E-01   1.00800           0
      4107 MEMB     25       POPC     H11B     HAL2     0.900000E-01   1.00800           0
      4108 MEMB     25       POPC     P        PL        1.50000       30.9740           0
      4109 MEMB     25       POPC     O13      O2L     -0.780000       15.9994           0
      4110 MEMB     25       POPC     O14      O2L     -0.780000       15.9994           0
      4111 MEMB     25       POPC     O12      OSLP    -0.570000       15.9994           0
      4112 MEMB     25       POPC     O11      OSLP    -0.570000       15.9994           0
      4113 MEMB     25       POPC     C1       CTL2    -0.800000E-01   12.0110           0
      4114 MEMB     25       POPC     HA       HAL2     0.900000E-01   1.00800           0
      4115 MEMB     25       POPC     HB       HAL2     0.900000E-01   1.00800           0
      4116 MEMB     25       POPC     C2       CTL1     0.170000       12.0110           0
      4117 MEMB     25       POPC     HS       HAL1     0.900000E-01   1.00800           0
      4118 MEMB     25       POPC     O21      OSL     -0.490000       15.9994           0
      4119 MEMB     25       POPC     C21      CL       0.900000       12.0110           0
      4120 MEMB     25       POPC     O22      OBL     -0.630000       15.9994           0
      4121 MEMB     25       POPC     C22      CTL2    -0.220000       12.0110           0
      4122 MEMB     25       POPC     H2R      HAL2     0.900000E-01   1.00800           0
      4123 MEMB     25       POPC     H2S      HAL2     0.900000E-01   1.00800           0
      4124 MEMB     25       POPC     C3       CTL2     0.800000E-01   12.0110           0
      4125 MEMB     25       POPC     HX       HAL2     0.900000E-01   1.00800           0
      4126 MEMB     25       POPC     HY       HAL2     0.900000E-01   1.00800           0
      4127 MEMB     25       POPC     O31      OSL     -0.490000       15.9994           0
      4128 MEMB     25       POPC     C31      CL       0.900000       12.0110           0
      4129 MEMB     25       POPC     O32      OBL     -0.630000       15.9994           0
      4130 MEMB     25       POPC     C32      CTL2    -0.220000       12.0110           0
      4131 MEMB     25       POPC     H2X      HAL2     0.900000E-01   1.00800           0
      4132 MEMB     25       POPC     H2Y      HAL2     0.900000E-01   1.00800           0
      4133 MEMB     25       POPC     C23      CTL2    -0.180000       12.0110           0
      4134 MEMB     25       POPC     H3R      HAL2     0.900000E-01   1.00800           0
      4135 MEMB     25       POPC     H3S      HAL2     0.900000E-01   1.00800           0
      4136 MEMB     25       POPC     C24      CTL2    -0.180000       12.0110           0
      4137 MEMB     25       POPC     H4R      HAL2     0.900000E-01   1.00800           0
      4138 MEMB     25       POPC     H4S      HAL2     0.900000E-01   1.00800           0
      4139 MEMB     25       POPC     C25      CTL2    -0.180000       12.0110           0
      4140 MEMB     25       POPC     H5R      HAL2     0.900000E-01   1.00800           0
      4141 MEMB     25       POPC     H5S      HAL2     0.900000E-01   1.00800           0
      4142 MEMB     25       POPC     C26      CTL2    -0.180000       12.0110           0
      4143 MEMB     25       POPC     H6R      HAL2     0.900000E-01   1.00800           0
      4144 MEMB     25       POPC     H6S      HAL2     0.900000E-01   1.00800           0
      4145 MEMB     25       POPC     C27      CTL2    -0.180000       12.0110           0
      4146 MEMB     25       POPC     H7R      HAL2     0.900000E-01   1.00800           0
      4147 MEMB     25       POPC     H7S      HAL2     0.900000E-01   1.00800           0
      4148 MEMB     25       POPC     C28      CTL2    -0.180000       12.0110           0
      4149 MEMB     25       POPC     H8R      HAL2     0.900000E-01   1.00800           0
      4150 MEMB     25       POPC     H8S      HAL2     0.900000E-01   1.00800           0
      4151 MEMB     25       POPC     C29      CEL1    -0.150000       12.0110           0
      4152 MEMB     25       POPC     H91      HEL1     0.150000       1.00800           0
      4153 MEMB     25       POPC     C210     CEL1    -0.150000       12.0110           0
      4154 MEMB     25       POPC     H101     HEL1     0.150000       1.00800           0
      4155 MEMB     25       POPC     C211     CTL2    -0.180000       12.0110           0
      4156 MEMB     25       POPC     H11R     HAL2     0.900000E-01   1.00800           0
      4157 MEMB     25       POPC     H11S     HAL2     0.900000E-01   1.00800           0
      4158 MEMB     25       POPC     C212     CTL2    -0.180000       12.0110           0
      4159 MEMB     25       POPC     H12R     HAL2     0.900000E-01   1.00800           0
      4160 MEMB     25       POPC     H12S     HAL2     0.900000E-01   1.00800           0
      4161 MEMB     25       POPC     C213     CTL2    -0.180000       12.0110           0
      4162 MEMB     25       POPC     H13R     HAL2     0.900000E-01   1.00800           0
      4163 MEMB     25       POPC     H13S     HAL2     0.900000E-01   1.00800           0
      4164 MEMB     25       POPC     C214     CTL2    -0.180000       12.0110           0
      4165 MEMB     25       POPC     H14R     HAL2     0.900000E-01   1.00800           0
      4166 MEMB     25       POPC     H14S     HAL2     0.900000E-01   1.00800           0
      4167 MEMB     25       POPC     C215     CTL2    -0.180000       12.0110           0
      4168 MEMB     25       POPC     H15R     HAL2     0.900000E-01   1.00800           0
      4169 MEMB     25       POPC     H15S     HAL2     0.900000E-01   1.00800           0
      4170 MEMB     25       POPC     C216     CTL2    -0.180000       12.0110           0
      4171 MEMB     25       POPC     H16R     HAL2     0.900000E-01   1.00800           0
      4172 MEMB     25       POPC     H16S     HAL2     0.900000E-01   1.00800           0
      4173 MEMB     25       POPC     C217     CTL2    -0.180000       12.0110           0
      4174 MEMB     25       POPC     H17R     HAL2     0.900000E-01   1.00800           0
      4175 MEMB     25       POPC     H17S     HAL2     0.900000E-01   1.00800           0
      4176 MEMB     25       POPC     C218     CTL3    -0.270000       12.0110           0
      4177 MEMB     25       POPC     H18R     HAL3     0.900000E-01   1.00800           0
      4178 MEMB     25       POPC     H18S     HAL3     0.900000E-01   1.00800           0
      4179 MEMB     25       POPC     H18T     HAL3     0.900000E-01   1.00800           0
      4180 MEMB     25       POPC     C33      CTL2    -0.180000       12.0110           0
      4181 MEMB     25       POPC     H3X      HAL2     0.900000E-01   1.00800           0
      4182 MEMB     25       POPC     H3Y      HAL2     0.900000E-01   1.00800           0
      4183 MEMB     25       POPC     C34      CTL2    -0.180000       12.0110           0
      4184 MEMB     25       POPC     H4X      HAL2     0.900000E-01   1.00800           0
      4185 MEMB     25       POPC     H4Y      HAL2     0.900000E-01   1.00800           0
      4186 MEMB     25       POPC     C35      CTL2    -0.180000       12.0110           0
      4187 MEMB     25       POPC     H5X      HAL2     0.900000E-01   1.00800           0
      4188 MEMB     25       POPC     H5Y      HAL2     0.900000E-01   1.00800           0
      4189 MEMB     25       POPC     C36      CTL2    -0.180000       12.0110           0
      4190 MEMB     25       POPC     H6X      HAL2     0.900000E-01   1.00800           0
      4191 MEMB     25       POPC     H6Y      HAL2     0.900000E-01   1.00800           0
      4192 MEMB     25       POPC     C37      CTL2    -0.180000       12.0110           0
      4193 MEMB     25       POPC     H7X      HAL2     0.900000E-01   1.00800           0
      4194 MEMB     25       POPC     H7Y      HAL2     0.900000E-01   1.00800           0
      4195 MEMB     25       POPC     C38      CTL2    -0.180000       12.0110           0
      4196 MEMB     25       POPC     H8X      HAL2     0.900000E-01   1.00800           0
      4197 MEMB     25       POPC     H8Y      HAL2     0.900000E-01   1.00800           0
      4198 MEMB     25       POPC     C39      CTL2    -0.180000       12.0110           0
      4199 MEMB     25       POPC     H9X      HAL2     0.900000E-01   1.00800           0
      4200 MEMB     25       POPC     H9Y      HAL2     0.900000E-01   1.00800           0
      4201 MEMB     25       POPC     C310     CTL2    -0.180000       12.0110           0
      4202 MEMB     25       POPC     H10X     HAL2     0.900000E-01   1.00800           0
      4203 MEMB     25       POPC     H10Y     HAL2     0.900000E-01   1.00800           0
      4204 MEMB     25       POPC     C311     CTL2    -0.180000       12.0110           0
      4205 MEMB     25       POPC     H11X     HAL2     0.900000E-01   1.00800           0
      4206 MEMB     25       POPC     H11Y     HAL2     0.900000E-01   1.00800           0
      4207 MEMB     25       POPC     C312     CTL2    -0.180000       12.0110           0
      4208 MEMB     25       POPC     H12X     HAL2     0.900000E-01   1.00800           0
      4209 MEMB     25       POPC     H12Y     HAL2     0.900000E-01   1.00800           0
      4210 MEMB     25       POPC     C313     CTL2    -0.180000       12.0110           0
      4211 MEMB     25       POPC     H13X     HAL2     0.900000E-01   1.00800           0
      4212 MEMB     25       POPC     H13Y     HAL2     0.900000E-01   1.00800           0
      4213 MEMB     25       POPC     C314     CTL2    -0.180000       12.0110           0
      4214 MEMB     25       POPC     H14X     HAL2     0.900000E-01   1.00800           0
      4215 MEMB     25       POPC     H14Y     HAL2     0.900000E-01   1.00800           0
      4216 MEMB     25       POPC     C315     CTL2    -0.180000       12.0110           0
      4217 MEMB     25       POPC     H15X     HAL2     0.900000E-01   1.00800           0
      4218 MEMB     25       POPC     H15Y     HAL2     0.900000E-01   1.00800           0
      4219 MEMB     25       POPC     C316     CTL3    -0.270000       12.0110           0
      4220 MEMB     25       POPC     H16X     HAL3     0.900000E-01   1.00800           0
      4221 MEMB     25       POPC     H16Y     HAL3     0.900000E-01   1.00800           0
      4222 MEMB     25       POPC     H16Z     HAL3     0.900000E-01   1.00800           0
      4223 MEMB     26       POPC     N        NTL     -0.600000       14.0070           0
      4224 MEMB     26       POPC     C12      CTL2    -0.100000       12.0110           0
      4225 MEMB     26       POPC     H12A     HL       0.250000       1.00800           0
      4226 MEMB     26       POPC     H12B     HL       0.250000       1.00800           0
      4227 MEMB     26       POPC     C13      CTL5    -0.350000       12.0110           0
      4228 MEMB     26       POPC     H13A     HL       0.250000       1.00800           0
      4229 MEMB     26       POPC     H13B     HL       0.250000       1.00800           0
      4230 MEMB     26       POPC     H13C     HL       0.250000       1.00800           0
      4231 MEMB     26       POPC     C14      CTL5    -0.350000       12.0110           0
      4232 MEMB     26       POPC     H14A     HL       0.250000       1.00800           0
      4233 MEMB     26       POPC     H14B     HL       0.250000       1.00800           0
      4234 MEMB     26       POPC     H14C     HL       0.250000       1.00800           0
      4235 MEMB     26       POPC     C15      CTL5    -0.350000       12.0110           0
      4236 MEMB     26       POPC     H15A     HL       0.250000       1.00800           0
      4237 MEMB     26       POPC     H15B     HL       0.250000       1.00800           0
      4238 MEMB     26       POPC     H15C     HL       0.250000       1.00800           0
      4239 MEMB     26       POPC     C11      CTL2    -0.800000E-01   12.0110           0
      4240 MEMB     26       POPC     H11A     HAL2     0.900000E-01   1.00800           0
      4241 MEMB     26       POPC     H11B     HAL2     0.900000E-01   1.00800           0
      4242 MEMB     26       POPC     P        PL        1.50000       30.9740           0
      4243 MEMB     26       POPC     O13      O2L     -0.780000       15.9994           0
      4244 MEMB     26       POPC     O14      O2L     -0.780000       15.9994           0
      4245 MEMB     26       POPC     O12      OSLP    -0.570000       15.9994           0
      4246 MEMB     26       POPC     O11      OSLP    -0.570000       15.9994           0
      4247 MEMB     26       POPC     C1       CTL2    -0.800000E-01   12.0110           0
      4248 MEMB     26       POPC     HA       HAL2     0.900000E-01   1.00800           0
      4249 MEMB     26       POPC     HB       HAL2     0.900000E-01   1.00800           0
      4250 MEMB     26       POPC     C2       CTL1     0.170000       12.0110           0
      4251 MEMB     26       POPC     HS       HAL1     0.900000E-01   1.00800           0
      4252 MEMB     26       POPC     O21      OSL     -0.490000       15.9994           0
      4253 MEMB     26       POPC     C21      CL       0.900000       12.0110           0
      4254 MEMB     26       POPC     O22      OBL     -0.630000       15.9994           0
      4255 MEMB     26       POPC     C22      CTL2    -0.220000       12.0110           0
      4256 MEMB     26       POPC     H2R      HAL2     0.900000E-01   1.00800           0
      4257 MEMB     26       POPC     H2S      HAL2     0.900000E-01   1.00800           0
      4258 MEMB     26       POPC     C3       CTL2     0.800000E-01   12.0110           0
      4259 MEMB     26       POPC     HX       HAL2     0.900000E-01   1.00800           0
      4260 MEMB     26       POPC     HY       HAL2     0.900000E-01   1.00800           0
      4261 MEMB     26       POPC     O31      OSL     -0.490000       15.9994           0
      4262 MEMB     26       POPC     C31      CL       0.900000       12.0110           0
      4263 MEMB     26       POPC     O32      OBL     -0.630000       15.9994           0
      4264 MEMB     26       POPC     C32      CTL2    -0.220000       12.0110           0
      4265 MEMB     26       POPC     H2X      HAL2     0.900000E-01   1.00800           0
      4266 MEMB     26       POPC     H2Y      HAL2     0.900000E-01   1.00800           0
      4267 MEMB     26       POPC     C23      CTL2    -0.180000       12.0110           0
      4268 MEMB     26       POPC     H3R      HAL2     0.900000E-01   1.00800           0
      4269 MEMB     26       POPC     H3S      HAL2     0.900000E-01   1.00800           0
      4270 MEMB     26       POPC     C24      CTL2    -0.180000       12.0110           0
      4271 MEMB     26       POPC     H4R      HAL2     0.900000E-01   1.00800           0
      4272 MEMB     26       POPC     H4S      HAL2     0.900000E-01   1.00800           0
      4273 MEMB     26       POPC     C25      CTL2    -0.180000       12.0110           0
      4274 MEMB     26       POPC     H5R      HAL2     0.900000E-01   1.00800           0
      4275 MEMB     26       POPC     H5S      HAL2     0.900000E-01   1.00800           0
      4276 MEMB     26       POPC     C26      CTL2    -0.180000       12.0110           0
      4277 MEMB     26       POPC     H6R      HAL2     0.900000E-01   1.00800           0
      4278 MEMB     26       POPC     H6S      HAL2     0.900000E-01   1.00800           0
      4279 MEMB     26       POPC     C27      CTL2    -0.180000       12.0110           0
      4280 MEMB     26       POPC     H7R      HAL2     0.900000E-01   1.00800           0
      4281 MEMB     26       POPC     H7S      HAL2     0.900000E-01   1.00800           0
      4282 MEMB     26       POPC     C28      CTL2    -0.180000       12.0110           0
      4283 MEMB     26       POPC     H8R      HAL2     0.900000E-01   1.00800           0
      4284 MEMB     26       POPC     H8S      HAL2     0.900000E-01   1.00800           0
      4285 MEMB     26       POPC     C29      CEL1    -0.150000       12.0110           0
      4286 MEMB     26       POPC     H91      HEL1     0.150000       1.00800           0
      4287 MEMB     26       POPC     C210     CEL1    -0.150000       12.0110           0
      4288 MEMB     26       POPC     H101     HEL1     0.150000       1.00800           0
      4289 MEMB     26       POPC     C211     CTL2    -0.180000       12.0110           0
      4290 MEMB     26       POPC     H11R     HAL2     0.900000E-01   1.00800           0
      4291 MEMB     26       POPC     H11S     HAL2     0.900000E-01   1.00800           0
      4292 MEMB     26       POPC     C212     CTL2    -0.180000       12.0110           0
      4293 MEMB     26       POPC     H12R     HAL2     0.900000E-01   1.00800           0
      4294 MEMB     26       POPC     H12S     HAL2     0.900000E-01   1.00800           0
      4295 MEMB     26       POPC     C213     CTL2    -0.180000       12.0110           0
      4296 MEMB     26       POPC     H13R     HAL2     0.900000E-01   1.00800           0
      4297 MEMB     26       POPC     H13S     HAL2     0.900000E-01   1.00800           0
      4298 MEMB     26       POPC     C214     CTL2    -0.180000       12.0110           0
      4299 MEMB     26       POPC     H14R     HAL2     0.900000E-01   1.00800           0
      4300 MEMB     26       POPC     H14S     HAL2     0.900000E-01   1.00800           0
      4301 MEMB     26       POPC     C215     CTL2    -0.180000       12.0110           0
      4302 MEMB     26       POPC     H15R     HAL2     0.900000E-01   1.00800           0
      4303 MEMB     26       POPC     H15S     HAL2     0.900000E-01   1.00800           0
      4304 MEMB     26       POPC     C216     CTL2    -0.180000       12.0110           0
      4305 MEMB     26       POPC     H16R     HAL2     0.900000E-01   1.00800           0
      4306 MEMB     26       POPC     H16S     HAL2     0.900000E-01   1.00800           0
      4307 MEMB     26       POPC     C217     CTL2    -0.180000       12.0110           0
      4308 MEMB     26       POPC     H17R     HAL2     0.900000E-01   1.00800           0
      4309 MEMB     26       POPC     H17S     HAL2     0.900000E-01   1.00800           0
      4310 MEMB     26       POPC     C218     CTL3    -0.270000       12.0110           0
      4311 MEMB     26       POPC     H18R     HAL3     0.900000E-01   1.00800           0
      4312 MEMB     26       POPC     H18S     HAL3     0.900000E-01   1.00800           0
      4313 MEMB     26       POPC     H18T     HAL3     0.900000E-01   1.00800           0
      4314 MEMB     26       POPC     C33      CTL2    -0.180000       12.0110           0
      4315 MEMB     26       POPC     H3X      HAL2     0.900000E-01   1.00800           0
      4316 MEMB     26       POPC     H3Y      HAL2     0.900000E-01   1.00800           0
      4317 MEMB     26       POPC     C34      CTL2    -0.180000       12.0110           0
      4318 MEMB     26       POPC     H4X      HAL2     0.900000E-01   1.00800           0
      4319 MEMB     26       POPC     H4Y      HAL2     0.900000E-01   1.00800           0
      4320 MEMB     26       POPC     C35      CTL2    -0.180000       12.0110           0
      4321 MEMB     26       POPC     H5X      HAL2     0.900000E-01   1.00800           0
      4322 MEMB     26       POPC     H5Y      HAL2     0.900000E-01   1.00800           0
      4323 MEMB     26       POPC     C36      CTL2    -0.180000       12.0110           0
      4324 MEMB     26       POPC     H6X      HAL2     0.900000E-01   1.00800           0
      4325 MEMB     26       POPC     H6Y      HAL2     0.900000E-01   1.00800           0
      4326 MEMB     26       POPC     C37      CTL2    -0.180000       12.0110           0
      4327 MEMB     26       POPC     H7X      HAL2     0.900000E-01   1.00800           0
      4328 MEMB     26       POPC     H7Y      HAL2     0.900000E-01   1.00800           0
      4329 MEMB     26       POPC     C38      CTL2    -0.180000       12.0110           0
      4330 MEMB     26       POPC     H8X      HAL2     0.900000E-01   1.00800           0
      4331 MEMB     26       POPC     H8Y      HAL2     0.900000E-01   1.00800           0
      4332 MEMB     26       POPC     C39      CTL2    -0.180000       12.0110           0
      4333 MEMB     26       POPC     H9X      HAL2     0.900000E-01   1.00800           0
      4334 MEMB     26       POPC     H9Y      HAL2     0.900000E-01   1.00800           0
      4335 MEMB     26       POPC     C310     CTL2    -0.180000       12.0110           0
      4336 MEMB     26       POPC     H10X     HAL2     0.900000E-01   1.00800           0
      4337 MEMB     26       POPC     H10Y     HAL2     0.900000E-01   1.00800           0
      4338 MEMB     26       POPC     C311     CTL2    -0.180000       12.0110           0
      4339 MEMB     26       POPC     H11X     HAL2     0.900000E-01   1.00800           0
      4340 MEMB     26       POPC     H11Y     HAL2     0.900000E-01   1.00800           0
      4341 MEMB     26       POPC     C312     CTL2    -0.180000       12.0110           0
      4342 MEMB     26       POPC     H12X     HAL2     0.900000E-01   1.00800           0
      4343 MEMB     26       POPC     H12Y     HAL2     0.900000E-01   1.00800           0
      4344 MEMB     26       POPC     C313     CTL2    -0.180000       12.0110           0
      4345 MEMB     26       POPC     H13X     HAL2     0.900000E-01   1.00800           0
      4346 MEMB     26       POPC     H13Y     HAL2     0.900000E-01   1.00800           0
      4347 MEMB     26       POPC     C314     CTL2    -0.180000       12.0110           0
      4348 MEMB     26       POPC     H14X     HAL2     0.900000E-01   1.00800           0
      4349 MEMB     26       POPC     H14Y     HAL2     0.900000E-01   1.00800           0
      4350 MEMB     26       POPC     C315     CTL2    -0.180000       12.0110           0
      4351 MEMB     26       POPC     H15X     HAL2     0.900000E-01   1.00800           0
      4352 MEMB     26       POPC     H15Y     HAL2     0.900000E-01   1.00800           0
      4353 MEMB     26       POPC     C316     CTL3    -0.270000       12.0110           0
      4354 MEMB     26       POPC     H16X     HAL3     0.900000E-01   1.00800           0
      4355 MEMB     26       POPC     H16Y     HAL3     0.900000E-01   1.00800           0
      4356 MEMB     26       POPC     H16Z     HAL3     0.900000E-01   1.00800           0
      4357 MEMB     27       POPC     N        NTL     -0.600000       14.0070           0
      4358 MEMB     27       POPC     C12      CTL2    -0.100000       12.0110           0
      4359 MEMB     27       POPC     H12A     HL       0.250000       1.00800           0
      4360 MEMB     27       POPC     H12B     HL       0.250000       1.00800           0
      4361 MEMB     27       POPC     C13      CTL5    -0.350000       12.0110           0
      4362 MEMB     27       POPC     H13A     HL       0.250000       1.00800           0
      4363 MEMB     27       POPC     H13B     HL       0.250000       1.00800           0
      4364 MEMB     27       POPC     H13C     HL       0.250000       1.00800           0
      4365 MEMB     27       POPC     C14      CTL5    -0.350000       12.0110           0
      4366 MEMB     27       POPC     H14A     HL       0.250000       1.00800           0
      4367 MEMB     27       POPC     H14B     HL       0.250000       1.00800           0
      4368 MEMB     27       POPC     H14C     HL       0.250000       1.00800           0
      4369 MEMB     27       POPC     C15      CTL5    -0.350000       12.0110           0
      4370 MEMB     27       POPC     H15A     HL       0.250000       1.00800           0
      4371 MEMB     27       POPC     H15B     HL       0.250000       1.00800           0
      4372 MEMB     27       POPC     H15C     HL       0.250000       1.00800           0
      4373 MEMB     27       POPC     C11      CTL2    -0.800000E-01   12.0110           0
      4374 MEMB     27       POPC     H11A     HAL2     0.900000E-01   1.00800           0
      4375 MEMB     27       POPC     H11B     HAL2     0.900000E-01   1.00800           0
      4376 MEMB     27       POPC     P        PL        1.50000       30.9740           0
      4377 MEMB     27       POPC     O13      O2L     -0.780000       15.9994           0
      4378 MEMB     27       POPC     O14      O2L     -0.780000       15.9994           0
      4379 MEMB     27       POPC     O12      OSLP    -0.570000       15.9994           0
      4380 MEMB     27       POPC     O11      OSLP    -0.570000       15.9994           0
      4381 MEMB     27       POPC     C1       CTL2    -0.800000E-01   12.0110           0
      4382 MEMB     27       POPC     HA       HAL2     0.900000E-01   1.00800           0
      4383 MEMB     27       POPC     HB       HAL2     0.900000E-01   1.00800           0
      4384 MEMB     27       POPC     C2       CTL1     0.170000       12.0110           0
      4385 MEMB     27       POPC     HS       HAL1     0.900000E-01   1.00800           0
      4386 MEMB     27       POPC     O21      OSL     -0.490000       15.9994           0
      4387 MEMB     27       POPC     C21      CL       0.900000       12.0110           0
      4388 MEMB     27       POPC     O22      OBL     -0.630000       15.9994           0
      4389 MEMB     27       POPC     C22      CTL2    -0.220000       12.0110           0
      4390 MEMB     27       POPC     H2R      HAL2     0.900000E-01   1.00800           0
      4391 MEMB     27       POPC     H2S      HAL2     0.900000E-01   1.00800           0
      4392 MEMB     27       POPC     C3       CTL2     0.800000E-01   12.0110           0
      4393 MEMB     27       POPC     HX       HAL2     0.900000E-01   1.00800           0
      4394 MEMB     27       POPC     HY       HAL2     0.900000E-01   1.00800           0
      4395 MEMB     27       POPC     O31      OSL     -0.490000       15.9994           0
      4396 MEMB     27       POPC     C31      CL       0.900000       12.0110           0
      4397 MEMB     27       POPC     O32      OBL     -0.630000       15.9994           0
      4398 MEMB     27       POPC     C32      CTL2    -0.220000       12.0110           0
      4399 MEMB     27       POPC     H2X      HAL2     0.900000E-01   1.00800           0
      4400 MEMB     27       POPC     H2Y      HAL2     0.900000E-01   1.00800           0
      4401 MEMB     27       POPC     C23      CTL2    -0.180000       12.0110           0
      4402 MEMB     27       POPC     H3R      HAL2     0.900000E-01   1.00800           0
      4403 MEMB     27       POPC     H3S      HAL2     0.900000E-01   1.00800           0
      4404 MEMB     27       POPC     C24      CTL2    -0.180000       12.0110           0
      4405 MEMB     27       POPC     H4R      HAL2     0.900000E-01   1.00800           0
      4406 MEMB     27       POPC     H4S      HAL2     0.900000E-01   1.00800           0
      4407 MEMB     27       POPC     C25      CTL2    -0.180000       12.0110           0
      4408 MEMB     27       POPC     H5R      HAL2     0.900000E-01   1.00800           0
      4409 MEMB     27       POPC     H5S      HAL2     0.900000E-01   1.00800           0
      4410 MEMB     27       POPC     C26      CTL2    -0.180000       12.0110           0
      4411 MEMB     27       POPC     H6R      HAL2     0.900000E-01   1.00800           0
      4412 MEMB     27       POPC     H6S      HAL2     0.900000E-01   1.00800           0
      4413 MEMB     27       POPC     C27      CTL2    -0.180000       12.0110           0
      4414 MEMB     27       POPC     H7R      HAL2     0.900000E-01   1.00800           0
      4415 MEMB     27       POPC     H7S      HAL2     0.900000E-01   1.00800           0
      4416 MEMB     27       POPC     C28      CTL2    -0.180000       12.0110           0
      4417 MEMB     27       POPC     H8R      HAL2     0.900000E-01   1.00800           0
      4418 MEMB     27       POPC     H8S      HAL2     0.900000E-01   1.00800           0
      4419 MEMB     27       POPC     C29      CEL1    -0.150000       12.0110           0
      4420 MEMB     27       POPC     H91      HEL1     0.150000       1.00800           0
      4421 MEMB     27       POPC     C210     CEL1    -0.150000       12.0110           0
      4422 MEMB     27       POPC     H101     HEL1     0.150000       1.00800           0
      4423 MEMB     27       POPC     C211     CTL2    -0.180000       12.0110           0
      4424 MEMB     27       POPC     H11R     HAL2     0.900000E-01   1.00800           0
      4425 MEMB     27       POPC     H11S     HAL2     0.900000E-01   1.00800           0
      4426 MEMB     27       POPC     C212     CTL2    -0.180000       12.0110           0
      4427 MEMB     27       POPC     H12R     HAL2     0.900000E-01   1.00800           0
      4428 MEMB     27       POPC     H12S     HAL2     0.900000E-01   1.00800           0
      4429 MEMB     27       POPC     C213     CTL2    -0.180000       12.0110           0
      4430 MEMB     27       POPC     H13R     HAL2     0.900000E-01   1.00800           0
      4431 MEMB     27       POPC     H13S     HAL2     0.900000E-01   1.00800           0
      4432 MEMB     27       POPC     C214     CTL2    -0.180000       12.0110           0
      4433 MEMB     27       POPC     H14R     HAL2     0.900000E-01   1.00800           0
      4434 MEMB     27       POPC     H14S     HAL2     0.900000E-01   1.00800           0
      4435 MEMB     27       POPC     C215     CTL2    -0.180000       12.0110           0
      4436 MEMB     27       POPC     H15R     HAL2     0.900000E-01   1.00800           0
      4437 MEMB     27       POPC     H15S     HAL2     0.900000E-01   1.00800           0
      4438 MEMB     27       POPC     C216     CTL2    -0.180000       12.0110           0
      4439 MEMB     27       POPC     H16R     HAL2     0.900000E-01   1.00800           0
      4440 MEMB     27       POPC     H16S     HAL2     0.900000E-01   1.00800           0
      4441 MEMB     27       POPC     C217     CTL2    -0.180000       12.0110           0
      4442 MEMB     27       POPC     H17R     HAL2     0.900000E-01   1.00800           0
      4443 MEMB     27       POPC     H17S     HAL2     0.900000E-01   1.00800           0
      4444 MEMB     27       POPC     C218     CTL3    -0.270000       12.0110           0
      4445 MEMB     27       POPC     H18R     HAL3     0.900000E-01   1.00800           0
      4446 MEMB     27       POPC     H18S     HAL3     0.900000E-01   1.00800           0
      4447 MEMB     27       POPC     H18T     HAL3     0.900000E-01   1.00800           0
      4448 MEMB     27       POPC     C33      CTL2    -0.180000       12.0110           0
      4449 MEMB     27       POPC     H3X      HAL2     0.900000E-01   1.00800           0
      4450 MEMB     27       POPC     H3Y      HAL2     0.900000E-01   1.00800           0
      4451 MEMB     27       POPC     C34      CTL2    -0.180000       12.0110           0
      4452 MEMB     27       POPC     H4X      HAL2     0.900000E-01   1.00800           0
      4453 MEMB     27       POPC     H4Y      HAL2     0.900000E-01   1.00800           0
      4454 MEMB     27       POPC     C35      CTL2    -0.180000       12.0110           0
      4455 MEMB     27       POPC     H5X      HAL2     0.900000E-01   1.00800           0
      4456 MEMB     27       POPC     H5Y      HAL2     0.900000E-01   1.00800           0
      4457 MEMB     27       POPC     C36      CTL2    -0.180000       12.0110           0
      4458 MEMB     27       POPC     H6X      HAL2     0.900000E-01   1.00800           0
      4459 MEMB     27       POPC     H6Y      HAL2     0.900000E-01   1.00800           0
      4460 MEMB     27       POPC     C37      CTL2    -0.180000       12.0110           0
      4461 MEMB     27       POPC     H7X      HAL2     0.900000E-01   1.00800           0
      4462 MEMB     27       POPC     H7Y      HAL2     0.900000E-01   1.00800           0
      4463 MEMB     27       POPC     C38      CTL2    -0.180000       12.0110           0
      4464 MEMB     27       POPC     H8X      HAL2     0.900000E-01   1.00800           0
      4465 MEMB     27       POPC     H8Y      HAL2     0.900000E-01   1.00800           0
      4466 MEMB     27       POPC     C39      CTL2    -0.180000       12.0110           0
      4467 MEMB     27       POPC     H9X      HAL2     0.900000E-01   1.00800           0
      4468 MEMB     27       POPC     H9Y      HAL2     0.900000E-01   1.00800           0
      4469 MEMB     27       POPC     C310     CTL2    -0.180000       12.0110           0
      4470 MEMB     27       POPC     H10X     HAL2     0.900000E-01   1.00800           0
      4471 MEMB     27       POPC     H10Y     HAL2     0.900000E-01   1.00800           0
      4472 MEMB     27       POPC     C311     CTL2    -0.180000       12.0110           0
      4473 MEMB     27       POPC     H11X     HAL2     0.900000E-01   1.00800           0
      4474 MEMB     27       POPC     H11Y     HAL2     0.900000E-01   1.00800           0
      4475 MEMB     27       POPC     C312     CTL2    -0.180000       12.0110           0
      4476 MEMB     27       POPC     H12X     HAL2     0.900000E-01   1.00800           0
      4477 MEMB     27       POPC     H12Y     HAL2     0.900000E-01   1.00800           0
      4478 MEMB     27       POPC     C313     CTL2    -0.180000       12.0110           0
      4479 MEMB     27       POPC     H13X     HAL2     0.900000E-01   1.00800           0
      4480 MEMB     27       POPC     H13Y     HAL2     0.900000E-01   1.00800           0
      4481 MEMB     27       POPC     C314     CTL2    -0.180000       12.0110           0
      4482 MEMB     27       POPC     H14X     HAL2     0.900000E-01   1.00800           0
      4483 MEMB     27       POPC     H14Y     HAL2     0.900000E-01   1.00800           0
      4484 MEMB     27       POPC     C315     CTL2    -0.180000       12.0110           0
      4485 MEMB     27       POPC     H15X     HAL2     0.900000E-01   1.00800           0
      4486 MEMB     27       POPC     H15Y     HAL2     0.900000E-01   1.00800           0
      4487 MEMB     27       POPC     C316     CTL3    -0.270000       12.0110           0
      4488 MEMB     27       POPC     H16X     HAL3     0.900000E-01   1.00800           0
      4489 MEMB     27       POPC     H16Y     HAL3     0.900000E-01   1.00800           0
      4490 MEMB     27       POPC     H16Z     HAL3     0.900000E-01   1.00800           0
      4491 MEMB     28       POPC     N        NTL     -0.600000       14.0070           0
      4492 MEMB     28       POPC     C12      CTL2    -0.100000       12.0110           0
      4493 MEMB     28       POPC     H12A     HL       0.250000       1.00800           0
      4494 MEMB     28       POPC     H12B     HL       0.250000       1.00800           0
      4495 MEMB     28       POPC     C13      CTL5    -0.350000       12.0110           0
      4496 MEMB     28       POPC     H13A     HL       0.250000       1.00800           0
      4497 MEMB     28       POPC     H13B     HL       0.250000       1.00800           0
      4498 MEMB     28       POPC     H13C     HL       0.250000       1.00800           0
      4499 MEMB     28       POPC     C14      CTL5    -0.350000       12.0110           0
      4500 MEMB     28       POPC     H14A     HL       0.250000       1.00800           0
      4501 MEMB     28       POPC     H14B     HL       0.250000       1.00800           0
      4502 MEMB     28       POPC     H14C     HL       0.250000       1.00800           0
      4503 MEMB     28       POPC     C15      CTL5    -0.350000       12.0110           0
      4504 MEMB     28       POPC     H15A     HL       0.250000       1.00800           0
      4505 MEMB     28       POPC     H15B     HL       0.250000       1.00800           0
      4506 MEMB     28       POPC     H15C     HL       0.250000       1.00800           0
      4507 MEMB     28       POPC     C11      CTL2    -0.800000E-01   12.0110           0
      4508 MEMB     28       POPC     H11A     HAL2     0.900000E-01   1.00800           0
      4509 MEMB     28       POPC     H11B     HAL2     0.900000E-01   1.00800           0
      4510 MEMB     28       POPC     P        PL        1.50000       30.9740           0
      4511 MEMB     28       POPC     O13      O2L     -0.780000       15.9994           0
      4512 MEMB     28       POPC     O14      O2L     -0.780000       15.9994           0
      4513 MEMB     28       POPC     O12      OSLP    -0.570000       15.9994           0
      4514 MEMB     28       POPC     O11      OSLP    -0.570000       15.9994           0
      4515 MEMB     28       POPC     C1       CTL2    -0.800000E-01   12.0110           0
      4516 MEMB     28       POPC     HA       HAL2     0.900000E-01   1.00800           0
      4517 MEMB     28       POPC     HB       HAL2     0.900000E-01   1.00800           0
      4518 MEMB     28       POPC     C2       CTL1     0.170000       12.0110           0
      4519 MEMB     28       POPC     HS       HAL1     0.900000E-01   1.00800           0
      4520 MEMB     28       POPC     O21      OSL     -0.490000       15.9994           0
      4521 MEMB     28       POPC     C21      CL       0.900000       12.0110           0
      4522 MEMB     28       POPC     O22      OBL     -0.630000       15.9994           0
      4523 MEMB     28       POPC     C22      CTL2    -0.220000       12.0110           0
      4524 MEMB     28       POPC     H2R      HAL2     0.900000E-01   1.00800           0
      4525 MEMB     28       POPC     H2S      HAL2     0.900000E-01   1.00800           0
      4526 MEMB     28       POPC     C3       CTL2     0.800000E-01   12.0110           0
      4527 MEMB     28       POPC     HX       HAL2     0.900000E-01   1.00800           0
      4528 MEMB     28       POPC     HY       HAL2     0.900000E-01   1.00800           0
      4529 MEMB     28       POPC     O31      OSL     -0.490000       15.9994           0
      4530 MEMB     28       POPC     C31      CL       0.900000       12.0110           0
      4531 MEMB     28       POPC     O32      OBL     -0.630000       15.9994           0
      4532 MEMB     28       POPC     C32      CTL2    -0.220000       12.0110           0
      4533 MEMB     28       POPC     H2X      HAL2     0.900000E-01   1.00800           0
      4534 MEMB     28       POPC     H2Y      HAL2     0.900000E-01   1.00800           0
      4535 MEMB     28       POPC     C23      CTL2    -0.180000       12.0110           0
      4536 MEMB     28       POPC     H3R      HAL2     0.900000E-01   1.00800           0
      4537 MEMB     28       POPC     H3S      HAL2     0.900000E-01   1.00800           0
      4538 MEMB     28       POPC     C24      CTL2    -0.180000       12.0110           0
      4539 MEMB     28       POPC     H4R      HAL2     0.900000E-01   1.00800           0
      4540 MEMB     28       POPC     H4S      HAL2     0.900000E-01   1.00800           0
      4541 MEMB     28       POPC     C25      CTL2    -0.180000       12.0110           0
      4542 MEMB     28       POPC     H5R      HAL2     0.900000E-01   1.00800           0
      4543 MEMB     28       POPC     H5S      HAL2     0.900000E-01   1.00800           0
      4544 MEMB     28       POPC     C26      CTL2    -0.180000       12.0110           0
      4545 MEMB     28       POPC     H6R      HAL2     0.900000E-01   1.00800           0
      4546 MEMB     28       POPC     H6S      HAL2     0.900000E-01   1.00800           0
      4547 MEMB     28       POPC     C27      CTL2    -0.180000       12.0110           0
      4548 MEMB     28       POPC     H7R      HAL2     0.900000E-01   1.00800           0
      4549 MEMB     28       POPC     H7S      HAL2     0.900000E-01   1.00800           0
      4550 MEMB     28       POPC     C28      CTL2    -0.180000       12.0110           0
      4551 MEMB     28       POPC     H8R      HAL2     0.900000E-01   1.00800           0
      4552 MEMB     28       POPC     H8S      HAL2     0.900000E-01   1.00800           0
      4553 MEMB     28       POPC     C29      CEL1    -0.150000       12.0110           0
      4554 MEMB     28       POPC     H91      HEL1     0.150000       1.00800           0
      4555 MEMB     28       POPC     C210     CEL1    -0.150000       12.0110           0
      4556 MEMB     28       POPC     H101     HEL1     0.150000       1.00800           0
      4557 MEMB     28       POPC     C211     CTL2    -0.180000       12.0110           0
      4558 MEMB     28       POPC     H11R     HAL2     0.900000E-01   1.00800           0
      4559 MEMB     28       POPC     H11S     HAL2     0.900000E-01   1.00800           0
      4560 MEMB     28       POPC     C212     CTL2    -0.180000       12.0110           0
      4561 MEMB     28       POPC     H12R     HAL2     0.900000E-01   1.00800           0
      4562 MEMB     28       POPC     H12S     HAL2     0.900000E-01   1.00800           0
      4563 MEMB     28       POPC     C213     CTL2    -0.180000       12.0110           0
      4564 MEMB     28       POPC     H13R     HAL2     0.900000E-01   1.00800           0
      4565 MEMB     28       POPC     H13S     HAL2     0.900000E-01   1.00800           0
      4566 MEMB     28       POPC     C214     CTL2    -0.180000       12.0110           0
      4567 MEMB     28       POPC     H14R     HAL2     0.900000E-01   1.00800           0
      4568 MEMB     28       POPC     H14S     HAL2     0.900000E-01   1.00800           0
      4569 MEMB     28       POPC     C215     CTL2    -0.180000       12.0110           0
      4570 MEMB     28       POPC     H15R     HAL2     0.900000E-01   1.00800           0
      4571 MEMB     28       POPC     H15S     HAL2     0.900000E-01   1.00800           0
      4572 MEMB     28       POPC     C216     CTL2    -0.180000       12.0110           0
      4573 MEMB     28       POPC     H16R     HAL2     0.900000E-01   1.00800           0
      4574 MEMB     28       POPC     H16S     HAL2     0.900000E-01   1.00800           0
      4575 MEMB     28       POPC     C217     CTL2    -0.180000       12.0110           0
      4576 MEMB     28       POPC     H17R     HAL2     0.900000E-01   1.00800           0
      4577 MEMB     28       POPC     H17S     HAL2     0.900000E-01   1.00800           0
      4578 MEMB     28       POPC     C218     CTL3    -0.270000       12.0110           0
      4579 MEMB     28       POPC     H18R     HAL3     0.900000E-01   1.00800           0
      4580 MEMB     28       POPC     H18S     HAL3     0.900000E-01   1.00800           0
      4581 MEMB     28       POPC     H18T     HAL3     0.900000E-01   1.00800           0
      4582 MEMB     28       POPC     C33      CTL2    -0.180000       12.0110           0
      4583 MEMB     28       POPC     H3X      HAL2     0.900000E-01   1.00800           0
      4584 MEMB     28       POPC     H3Y      HAL2     0.900000E-01   1.00800           0
      4585 MEMB     28       POPC     C34      CTL2    -0.180000       12.0110           0
      4586 MEMB     28       POPC     H4X      HAL2     0.900000E-01   1.00800           0
      4587 MEMB     28       POPC     H4Y      HAL2     0.900000E-01   1.00800           0
      4588 MEMB     28       POPC     C35      CTL2    -0.180000       12.0110           0
      4589 MEMB     28       POPC     H5X      HAL2     0.900000E-01   1.00800           0
      4590 MEMB     28       POPC     H5Y      HAL2     0.900000E-01   1.00800           0
      4591 MEMB     28       POPC     C36      CTL2    -0.180000       12.0110           0
      4592 MEMB     28       POPC     H6X      HAL2     0.900000E-01   1.00800           0
      4593 MEMB     28       POPC     H6Y      HAL2     0.900000E-01   1.00800           0
      4594 MEMB     28       POPC     C37      CTL2    -0.180000       12.0110           0
      4595 MEMB     28       POPC     H7X      HAL2     0.900000E-01   1.00800           0
      4596 MEMB     28       POPC     H7Y      HAL2     0.900000E-01   1.00800           0
      4597 MEMB     28       POPC     C38      CTL2    -0.180000       12.0110           0
      4598 MEMB     28       POPC     H8X      HAL2     0.900000E-01   1.00800           0
      4599 MEMB     28       POPC     H8Y      HAL2     0.900000E-01   1.00800           0
      4600 MEMB     28       POPC     C39      CTL2    -0.180000       12.0110           0
      4601 MEMB     28       POPC     H9X      HAL2     0.900000E-01   1.00800           0
      4602 MEMB     28       POPC     H9Y      HAL2     0.900000E-01   1.00800           0
      4603 MEMB     28       POPC     C310     CTL2    -0.180000       12.0110           0
      4604 MEMB     28       POPC     H10X     HAL2     0.900000E-01   1.00800           0
      4605 MEMB     28       POPC     H10Y     HAL2     0.900000E-01   1.00800           0
      4606 MEMB     28       POPC     C311     CTL2    -0.180000       12.0110           0
      4607 MEMB     28       POPC     H11X     HAL2     0.900000E-01   1.00800           0
      4608 MEMB     28       POPC     H11Y     HAL2     0.900000E-01   1.00800           0
      4609 MEMB     28       POPC     C312     CTL2    -0.180000       12.0110           0
      4610 MEMB     28       POPC     H12X     HAL2     0.900000E-01   1.00800           0
      4611 MEMB     28       POPC     H12Y     HAL2     0.900000E-01   1.00800           0
      4612 MEMB     28       POPC     C313     CTL2    -0.180000       12.0110           0
      4613 MEMB     28       POPC     H13X     HAL2     0.900000E-01   1.00800           0
      4614 MEMB     28       POPC     H13Y     HAL2     0.900000E-01   1.00800           0
      4615 MEMB     28       POPC     C314     CTL2    -0.180000       12.0110           0
      4616 MEMB     28       POPC     H14X     HAL2     0.900000E-01   1.00800           0
      4617 MEMB     28       POPC     H14Y     HAL2     0.900000E-01   1.00800           0
      4618 MEMB     28       POPC     C315     CTL2    -0.180000       12.0110           0
      4619 MEMB     28       POPC     H15X     HAL2     0.900000E-01   1.00800           0
      4620 MEMB     28       POPC     H15Y     HAL2     0.900000E-01   1.00800           0
      4621 MEMB     28       POPC     C316     CTL3    -0.270000       12.0110           0
      4622 MEMB     28       POPC     H16X     HAL3     0.900000E-01   1.00800           0
      4623 MEMB     28       POPC     H16Y     HAL3     0.900000E-01   1.00800           0
      4624 MEMB     28       POPC     H16Z     HAL3     0.900000E-01   1.00800           0
      4625 MEMB     29       POPC     N        NTL     -0.600000       14.0070           0
      4626 MEMB     29       POPC     C12      CTL2    -0.100000       12.0110           0
      4627 MEMB     29       POPC     H12A     HL       0.250000       1.00800           0
      4628 MEMB     29       POPC     H12B     HL       0.250000       1.00800           0
      4629 MEMB     29       POPC     C13      CTL5    -0.350000       12.0110           0
      4630 MEMB     29       POPC     H13A     HL       0.250000       1.00800           0
      4631 MEMB     29       POPC     H13B     HL       0.250000       1.00800           0
      4632 MEMB     29       POPC     H13C     HL       0.250000       1.00800           0
      4633 MEMB     29       POPC     C14      CTL5    -0.350000       12.0110           0
      4634 MEMB     29       POPC     H14A     HL       0.250000       1.00800           0
      4635 MEMB     29       POPC     H14B     HL       0.250000       1.00800           0
      4636 MEMB     29       POPC     H14C     HL       0.250000       1.00800           0
      4637 MEMB     29       POPC     C15      CTL5    -0.350000       12.0110           0
      4638 MEMB     29       POPC     H15A     HL       0.250000       1.00800           0
      4639 MEMB     29       POPC     H15B     HL       0.250000       1.00800           0
      4640 MEMB     29       POPC     H15C     HL       0.250000       1.00800           0
      4641 MEMB     29       POPC     C11      CTL2    -0.800000E-01   12.0110           0
      4642 MEMB     29       POPC     H11A     HAL2     0.900000E-01   1.00800           0
      4643 MEMB     29       POPC     H11B     HAL2     0.900000E-01   1.00800           0
      4644 MEMB     29       POPC     P        PL        1.50000       30.9740           0
      4645 MEMB     29       POPC     O13      O2L     -0.780000       15.9994           0
      4646 MEMB     29       POPC     O14      O2L     -0.780000       15.9994           0
      4647 MEMB     29       POPC     O12      OSLP    -0.570000       15.9994           0
      4648 MEMB     29       POPC     O11      OSLP    -0.570000       15.9994           0
      4649 MEMB     29       POPC     C1       CTL2    -0.800000E-01   12.0110           0
      4650 MEMB     29       POPC     HA       HAL2     0.900000E-01   1.00800           0
      4651 MEMB     29       POPC     HB       HAL2     0.900000E-01   1.00800           0
      4652 MEMB     29       POPC     C2       CTL1     0.170000       12.0110           0
      4653 MEMB     29       POPC     HS       HAL1     0.900000E-01   1.00800           0
      4654 MEMB     29       POPC     O21      OSL     -0.490000       15.9994           0
      4655 MEMB     29       POPC     C21      CL       0.900000       12.0110           0
      4656 MEMB     29       POPC     O22      OBL     -0.630000       15.9994           0
      4657 MEMB     29       POPC     C22      CTL2    -0.220000       12.0110           0
      4658 MEMB     29       POPC     H2R      HAL2     0.900000E-01   1.00800           0
      4659 MEMB     29       POPC     H2S      HAL2     0.900000E-01   1.00800           0
      4660 MEMB     29       POPC     C3       CTL2     0.800000E-01   12.0110           0
      4661 MEMB     29       POPC     HX       HAL2     0.900000E-01   1.00800           0
      4662 MEMB     29       POPC     HY       HAL2     0.900000E-01   1.00800           0
      4663 MEMB     29       POPC     O31      OSL     -0.490000       15.9994           0
      4664 MEMB     29       POPC     C31      CL       0.900000       12.0110           0
      4665 MEMB     29       POPC     O32      OBL     -0.630000       15.9994           0
      4666 MEMB     29       POPC     C32      CTL2    -0.220000       12.0110           0
      4667 MEMB     29       POPC     H2X      HAL2     0.900000E-01   1.00800           0
      4668 MEMB     29       POPC     H2Y      HAL2     0.900000E-01   1.00800           0
      4669 MEMB     29       POPC     C23      CTL2    -0.180000       12.0110           0
      4670 MEMB     29       POPC     H3R      HAL2     0.900000E-01   1.00800           0
      4671 MEMB     29       POPC     H3S      HAL2     0.900000E-01   1.00800           0
      4672 MEMB     29       POPC     C24      CTL2    -0.180000       12.0110           0
      4673 MEMB     29       POPC     H4R      HAL2     0.900000E-01   1.00800           0
      4674 MEMB     29       POPC     H4S      HAL2     0.900000E-01   1.00800           0
      4675 MEMB     29       POPC     C25      CTL2    -0.180000       12.0110           0
      4676 MEMB     29       POPC     H5R      HAL2     0.900000E-01   1.00800           0
      4677 MEMB     29       POPC     H5S      HAL2     0.900000E-01   1.00800           0
      4678 MEMB     29       POPC     C26      CTL2    -0.180000       12.0110           0
      4679 MEMB     29       POPC     H6R      HAL2     0.900000E-01   1.00800           0
      4680 MEMB     29       POPC     H6S      HAL2     0.900000E-01   1.00800           0
      4681 MEMB     29       POPC     C27      CTL2    -0.180000       12.0110           0
      4682 MEMB     29       POPC     H7R      HAL2     0.900000E-01   1.00800           0
      4683 MEMB     29       POPC     H7S      HAL2     0.900000E-01   1.00800           0
      4684 MEMB     29       POPC     C28      CTL2    -0.180000       12.0110           0
      4685 MEMB     29       POPC     H8R      HAL2     0.900000E-01   1.00800           0
      4686 MEMB     29       POPC     H8S      HAL2     0.900000E-01   1.00800           0
      4687 MEMB     29       POPC     C29      CEL1    -0.150000       12.0110           0
      4688 MEMB     29       POPC     H91      HEL1     0.150000       1.00800           0
      4689 MEMB     29       POPC     C210     CEL1    -0.150000       12.0110           0
      4690 MEMB     29       POPC     H101     HEL1     0.150000       1.00800           0
      4691 MEMB     29       POPC     C211     CTL2    -0.180000       12.0110           0
      4692 MEMB     29       POPC     H11R     HAL2     0.900000E-01   1.00800           0
      4693 MEMB     29       POPC     H11S     HAL2     0.900000E-01   1.00800           0
      4694 MEMB     29       POPC     C212     CTL2    -0.180000       12.0110           0
      4695 MEMB     29       POPC     H12R     HAL2     0.900000E-01   1.00800           0
      4696 MEMB     29       POPC     H12S     HAL2     0.900000E-01   1.00800           0
      4697 MEMB     29       POPC     C213     CTL2    -0.180000       12.0110           0
      4698 MEMB     29       POPC     H13R     HAL2     0.900000E-01   1.00800           0
      4699 MEMB     29       POPC     H13S     HAL2     0.900000E-01   1.00800           0
      4700 MEMB     29       POPC     C214     CTL2    -0.180000       12.0110           0
      4701 MEMB     29       POPC     H14R     HAL2     0.900000E-01   1.00800           0
      4702 MEMB     29       POPC     H14S     HAL2     0.900000E-01   1.00800           0
      4703 MEMB     29       POPC     C215     CTL2    -0.180000       12.0110           0
      4704 MEMB     29       POPC     H15R     HAL2     0.900000E-01   1.00800           0
      4705 MEMB     29       POPC     H15S     HAL2     0.900000E-01   1.00800           0
      4706 MEMB     29       POPC     C216     CTL2    -0.180000       12.0110           0
      4707 MEMB     29       POPC     H16R     HAL2     0.900000E-01   1.00800           0
      4708 MEMB     29       POPC     H16S     HAL2     0.900000E-01   1.00800           0
      4709 MEMB     29       POPC     C217     CTL2    -0.180000       12.0110           0
      4710 MEMB     29       POPC     H17R     HAL2     0.900000E-01   1.00800           0
      4711 MEMB     29       POPC     H17S     HAL2     0.900000E-01   1.00800           0
      4712 MEMB     29       POPC     C218     CTL3    -0.270000       12.0110           0
      4713 MEMB     29       POPC     H18R     HAL3     0.900000E-01   1.00800           0
      4714 MEMB     29       POPC     H18S     HAL3     0.900000E-01   1.00800           0
      4715 MEMB     29       POPC     H18T     HAL3     0.900000E-01   1.00800           0
      4716 MEMB     29       POPC     C33      CTL2    -0.180000       12.0110           0
      4717 MEMB     29       POPC     H3X      HAL2     0.900000E-01   1.00800           0
      4718 MEMB     29       POPC     H3Y      HAL2     0.900000E-01   1.00800           0
      4719 MEMB     29       POPC     C34      CTL2    -0.180000       12.0110           0
      4720 MEMB     29       POPC     H4X      HAL2     0.900000E-01   1.00800           0
      4721 MEMB     29       POPC     H4Y      HAL2     0.900000E-01   1.00800           0
      4722 MEMB     29       POPC     C35      CTL2    -0.180000       12.0110           0
      4723 MEMB     29       POPC     H5X      HAL2     0.900000E-01   1.00800           0
      4724 MEMB     29       POPC     H5Y      HAL2     0.900000E-01   1.00800           0
      4725 MEMB     29       POPC     C36      CTL2    -0.180000       12.0110           0
      4726 MEMB     29       POPC     H6X      HAL2     0.900000E-01   1.00800           0
      4727 MEMB     29       POPC     H6Y      HAL2     0.900000E-01   1.00800           0
      4728 MEMB     29       POPC     C37      CTL2    -0.180000       12.0110           0
      4729 MEMB     29       POPC     H7X      HAL2     0.900000E-01   1.00800           0
      4730 MEMB     29       POPC     H7Y      HAL2     0.900000E-01   1.00800           0
      4731 MEMB     29       POPC     C38      CTL2    -0.180000       12.0110           0
      4732 MEMB     29       POPC     H8X      HAL2     0.900000E-01   1.00800           0
      4733 MEMB     29       POPC     H8Y      HAL2     0.900000E-01   1.00800           0
      4734 MEMB     29       POPC     C39      CTL2    -0.180000       12.0110           0
      4735 MEMB     29       POPC     H9X      HAL2     0.900000E-01   1.00800           0
      4736 MEMB     29       POPC     H9Y      HAL2     0.900000E-01   1.00800           0
      4737 MEMB     29       POPC     C310     CTL2    -0.180000       12.0110           0
      4738 MEMB     29       POPC     H10X     HAL2     0.900000E-01   1.00800           0
      4739 MEMB     29       POPC     H10Y     HAL2     0.900000E-01   1.00800           0
      4740 MEMB     29       POPC     C311     CTL2    -0.180000       12.0110           0
      4741 MEMB     29       POPC     H11X     HAL2     0.900000E-01   1.00800           0
      4742 MEMB     29       POPC     H11Y     HAL2     0.900000E-01   1.00800           0
      4743 MEMB     29       POPC     C312     CTL2    -0.180000       12.0110           0
      4744 MEMB     29       POPC     H12X     HAL2     0.900000E-01   1.00800           0
      4745 MEMB     29       POPC     H12Y     HAL2     0.900000E-01   1.00800           0
      4746 MEMB     29       POPC     C313     CTL2    -0.180000       12.0110           0
      4747 MEMB     29       POPC     H13X     HAL2     0.900000E-01   1.00800           0
      4748 MEMB     29       POPC     H13Y     HAL2     0.900000E-01   1.00800           0
      4749 MEMB     29       POPC     C314     CTL2    -0.180000       12.0110           0
      4750 MEMB     29       POPC     H14X     HAL2     0.900000E-01   1.00800           0
      4751 MEMB     29       POPC     H14Y     HAL2     0.900000E-01   1.00800           0
      4752 MEMB     29       POPC     C315     CTL2    -0.180000       12.0110           0
      4753 MEMB     29       POPC     H15X     HAL2     0.900000E-01   1.00800           0
      4754 MEMB     29       POPC     H15Y     HAL2     0.900000E-01   1.00800           0
      4755 MEMB     29       POPC     C316     CTL3    -0.270000       12.0110           0
      4756 MEMB     29       POPC     H16X     HAL3     0.900000E-01   1.00800           0
      4757 MEMB     29       POPC     H16Y     HAL3     0.900000E-01   1.00800           0
      4758 MEMB     29       POPC     H16Z     HAL3     0.900000E-01   1.00800           0
      4759 MEMB     30       POPC     N        NTL     -0.600000       14.0070           0
      4760 MEMB     30       POPC     C12      CTL2    -0.100000       12.0110           0
      4761 MEMB     30       POPC     H12A     HL       0.250000       1.00800           0
      4762 MEMB     30       POPC     H12B     HL       0.250000       1.00800           0
      4763 MEMB     30       POPC     C13      CTL5    -0.350000       12.0110           0
      4764 MEMB     30       POPC     H13A     HL       0.250000       1.00800           0
      4765 MEMB     30       POPC     H13B     HL       0.250000       1.00800           0
      4766 MEMB     30       POPC     H13C     HL       0.250000       1.00800           0
      4767 MEMB     30       POPC     C14      CTL5    -0.350000       12.0110           0
      4768 MEMB     30       POPC     H14A     HL       0.250000       1.00800           0
      4769 MEMB     30       POPC     H14B     HL       0.250000       1.00800           0
      4770 MEMB     30       POPC     H14C     HL       0.250000       1.00800           0
      4771 MEMB     30       POPC     C15      CTL5    -0.350000       12.0110           0
      4772 MEMB     30       POPC     H15A     HL       0.250000       1.00800           0
      4773 MEMB     30       POPC     H15B     HL       0.250000       1.00800           0
      4774 MEMB     30       POPC     H15C     HL       0.250000       1.00800           0
      4775 MEMB     30       POPC     C11      CTL2    -0.800000E-01   12.0110           0
      4776 MEMB     30       POPC     H11A     HAL2     0.900000E-01   1.00800           0
      4777 MEMB     30       POPC     H11B     HAL2     0.900000E-01   1.00800           0
      4778 MEMB     30       POPC     P        PL        1.50000       30.9740           0
      4779 MEMB     30       POPC     O13      O2L     -0.780000       15.9994           0
      4780 MEMB     30       POPC     O14      O2L     -0.780000       15.9994           0
      4781 MEMB     30       POPC     O12      OSLP    -0.570000       15.9994           0
      4782 MEMB     30       POPC     O11      OSLP    -0.570000       15.9994           0
      4783 MEMB     30       POPC     C1       CTL2    -0.800000E-01   12.0110           0
      4784 MEMB     30       POPC     HA       HAL2     0.900000E-01   1.00800           0
      4785 MEMB     30       POPC     HB       HAL2     0.900000E-01   1.00800           0
      4786 MEMB     30       POPC     C2       CTL1     0.170000       12.0110           0
      4787 MEMB     30       POPC     HS       HAL1     0.900000E-01   1.00800           0
      4788 MEMB     30       POPC     O21      OSL     -0.490000       15.9994           0
      4789 MEMB     30       POPC     C21      CL       0.900000       12.0110           0
      4790 MEMB     30       POPC     O22      OBL     -0.630000       15.9994           0
      4791 MEMB     30       POPC     C22      CTL2    -0.220000       12.0110           0
      4792 MEMB     30       POPC     H2R      HAL2     0.900000E-01   1.00800           0
      4793 MEMB     30       POPC     H2S      HAL2     0.900000E-01   1.00800           0
      4794 MEMB     30       POPC     C3       CTL2     0.800000E-01   12.0110           0
      4795 MEMB     30       POPC     HX       HAL2     0.900000E-01   1.00800           0
      4796 MEMB     30       POPC     HY       HAL2     0.900000E-01   1.00800           0
      4797 MEMB     30       POPC     O31      OSL     -0.490000       15.9994           0
      4798 MEMB     30       POPC     C31      CL       0.900000       12.0110           0
      4799 MEMB     30       POPC     O32      OBL     -0.630000       15.9994           0
      4800 MEMB     30       POPC     C32      CTL2    -0.220000       12.0110           0
      4801 MEMB     30       POPC     H2X      HAL2     0.900000E-01   1.00800           0
      4802 MEMB     30       POPC     H2Y      HAL2     0.900000E-01   1.00800           0
      4803 MEMB     30       POPC     C23      CTL2    -0.180000       12.0110           0
      4804 MEMB     30       POPC     H3R      HAL2     0.900000E-01   1.00800           0
      4805 MEMB     30       POPC     H3S      HAL2     0.900000E-01   1.00800           0
      4806 MEMB     30       POPC     C24      CTL2    -0.180000       12.0110           0
      4807 MEMB     30       POPC     H4R      HAL2     0.900000E-01   1.00800           0
      4808 MEMB     30       POPC     H4S      HAL2     0.900000E-01   1.00800           0
      4809 MEMB     30       POPC     C25      CTL2    -0.180000       12.0110           0
      4810 MEMB     30       POPC     H5R      HAL2     0.900000E-01   1.00800           0
      4811 MEMB     30       POPC     H5S      HAL2     0.900000E-01   1.00800           0
      4812 MEMB     30       POPC     C26      CTL2    -0.180000       12.0110           0
      4813 MEMB     30       POPC     H6R      HAL2     0.900000E-01   1.00800           0
      4814 MEMB     30       POPC     H6S      HAL2     0.900000E-01   1.00800           0
      4815 MEMB     30       POPC     C27      CTL2    -0.180000       12.0110           0
      4816 MEMB     30       POPC     H7R      HAL2     0.900000E-01   1.00800           0
      4817 MEMB     30       POPC     H7S      HAL2     0.900000E-01   1.00800           0
      4818 MEMB     30       POPC     C28      CTL2    -0.180000       12.0110           0
      4819 MEMB     30       POPC     H8R      HAL2     0.900000E-01   1.00800           0
      4820 MEMB     30       POPC     H8S      HAL2     0.900000E-01   1.00800           0
      4821 MEMB     30       POPC     C29      CEL1    -0.150000       12.0110           0
      4822 MEMB     30       POPC     H91      HEL1     0.150000       1.00800           0
      4823 MEMB     30       POPC     C210     CEL1    -0.150000       12.0110           0
      4824 MEMB     30       POPC     H101     HEL1     0.150000       1.00800           0
      4825 MEMB     30       POPC     C211     CTL2    -0.180000       12.0110           0
      4826 MEMB     30       POPC     H11R     HAL2     0.900000E-01   1.00800           0
      4827 MEMB     30       POPC     H11S     HAL2     0.900000E-01   1.00800           0
      4828 MEMB     30       POPC     C212     CTL2    -0.180000       12.0110           0
      4829 MEMB     30       POPC     H12R     HAL2     0.900000E-01   1.00800           0
      4830 MEMB     30       POPC     H12S     HAL2     0.900000E-01   1.00800           0
      4831 MEMB     30       POPC     C213     CTL2    -0.180000       12.0110           0
      4832 MEMB     30       POPC     H13R     HAL2     0.900000E-01   1.00800           0
      4833 MEMB     30       POPC     H13S     HAL2     0.900000E-01   1.00800           0
      4834 MEMB     30       POPC     C214     CTL2    -0.180000       12.0110           0
      4835 MEMB     30       POPC     H14R     HAL2     0.900000E-01   1.00800           0
      4836 MEMB     30       POPC     H14S     HAL2     0.900000E-01   1.00800           0
      4837 MEMB     30       POPC     C215     CTL2    -0.180000       12.0110           0
      4838 MEMB     30       POPC     H15R     HAL2     0.900000E-01   1.00800           0
      4839 MEMB     30       POPC     H15S     HAL2     0.900000E-01   1.00800           0
      4840 MEMB     30       POPC     C216     CTL2    -0.180000       12.0110           0
      4841 MEMB     30       POPC     H16R     HAL2     0.900000E-01   1.00800           0
      4842 MEMB     30       POPC     H16S     HAL2     0.900000E-01   1.00800           0
      4843 MEMB     30       POPC     C217     CTL2    -0.180000       12.0110           0
      4844 MEMB     30       POPC     H17R     HAL2     0.900000E-01   1.00800           0
      4845 MEMB     30       POPC     H17S     HAL2     0.900000E-01   1.00800           0
      4846 MEMB     30       POPC     C218     CTL3    -0.270000       12.0110           0
      4847 MEMB     30       POPC     H18R     HAL3     0.900000E-01   1.00800           0
      4848 MEMB     30       POPC     H18S     HAL3     0.900000E-01   1.00800           0
      4849 MEMB     30       POPC     H18T     HAL3     0.900000E-01   1.00800           0
      4850 MEMB     30       POPC     C33      CTL2    -0.180000       12.0110           0
      4851 MEMB     30       POPC     H3X      HAL2     0.900000E-01   1.00800           0
      4852 MEMB     30       POPC     H3Y      HAL2     0.900000E-01   1.00800           0
      4853 MEMB     30       POPC     C34      CTL2    -0.180000       12.0110           0
      4854 MEMB     30       POPC     H4X      HAL2     0.900000E-01   1.00800           0
      4855 MEMB     30       POPC     H4Y      HAL2     0.900000E-01   1.00800           0
      4856 MEMB     30       POPC     C35      CTL2    -0.180000       12.0110           0
      4857 MEMB     30       POPC     H5X      HAL2     0.900000E-01   1.00800           0
      4858 MEMB     30       POPC     H5Y      HAL2     0.900000E-01   1.00800           0
      4859 MEMB     30       POPC     C36      CTL2    -0.180000       12.0110           0
      4860 MEMB     30       POPC     H6X      HAL2     0.900000E-01   1.00800           0
      4861 MEMB     30       POPC     H6Y      HAL2     0.900000E-01   1.00800           0
      4862 MEMB     30       POPC     C37      CTL2    -0.180000       12.0110           0
      4863 MEMB     30       POPC     H7X      HAL2     0.900000E-01   1.00800           0
      4864 MEMB     30       POPC     H7Y      HAL2     0.900000E-01   1.00800           0
      4865 MEMB     30       POPC     C38      CTL2    -0.180000       12.0110           0
      4866 MEMB     30       POPC     H8X      HAL2     0.900000E-01   1.00800           0
      4867 MEMB     30       POPC     H8Y      HAL2     0.900000E-01   1.00800           0
      4868 MEMB     30       POPC     C39      CTL2    -0.180000       12.0110           0
      4869 MEMB     30       POPC     H9X      HAL2     0.900000E-01   1.00800           0
      4870 MEMB     30       POPC     H9Y      HAL2     0.900000E-01   1.00800           0
      4871 MEMB     30       POPC     C310     CTL2    -0.180000       12.0110           0
      4872 MEMB     30       POPC     H10X     HAL2     0.900000E-01   1.00800           0
      4873 MEMB     30       POPC     H10Y     HAL2     0.900000E-01   1.00800           0
      4874 MEMB     30       POPC     C311     CTL2    -0.180000       12.0110           0
      4875 MEMB     30       POPC     H11X     HAL2     0.900000E-01   1.00800           0
      4876 MEMB     30       POPC     H11Y     HAL2     0.900000E-01   1.00800           0
      4877 MEMB     30       POPC     C312     CTL2    -0.180000       12.0110           0
      4878 MEMB     30       POPC     H12X     HAL2     0.900000E-01   1.00800           0
      4879 MEMB     30       POPC     H12Y     HAL2     0.900000E-01   1.00800           0
      4880 MEMB     30       POPC     C313     CTL2    -0.180000       12.0110           0
      4881 MEMB     30       POPC     H13X     HAL2     0.900000E-01   1.00800           0
      4882 MEMB     30       POPC     H13Y     HAL2     0.900000E-01   1.00800           0
      4883 MEMB     30       POPC     C314     CTL2    -0.180000       12.0110           0
      4884 MEMB     30       POPC     H14X     HAL2     0.900000E-01   1.00800           0
      4885 MEMB     30       POPC     H14Y     HAL2     0.900000E-01   1.00800           0
      4886 MEMB     30       POPC     C315     CTL2    -0.180000       12.0110           0
      4887 MEMB     30       POPC     H15X     HAL2     0.900000E-01   1.00800           0
      4888 MEMB     30       POPC     H15Y     HAL2     0.900000E-01   1.00800           0
      4889 MEMB     30       POPC     C316     CTL3    -0.270000       12.0110           0
      4890 MEMB     30       POPC     H16X     HAL3     0.900000E-01   1.00800           0
      4891 MEMB     30       POPC     H16Y     HAL3     0.900000E-01   1.00800           0
      4892 MEMB     30       POPC     H16Z     HAL3     0.900000E-01   1.00800           0
      4893 MEMB     31       POPC     N        NTL     -0.600000       14.0070           0
      4894 MEMB     31       POPC     C12      CTL2    -0.100000       12.0110           0
      4895 MEMB     31       POPC     H12A     HL       0.250000       1.00800           0
      4896 MEMB     31       POPC     H12B     HL       0.250000       1.00800           0
      4897 MEMB     31       POPC     C13      CTL5    -0.350000       12.0110           0
      4898 MEMB     31       POPC     H13A     HL       0.250000       1.00800           0
      4899 MEMB     31       POPC     H13B     HL       0.250000       1.00800           0
      4900 MEMB     31       POPC     H13C     HL       0.250000       1.00800           0
      4901 MEMB     31       POPC     C14      CTL5    -0.350000       12.0110           0
      4902 MEMB     31       POPC     H14A     HL       0.250000       1.00800           0
      4903 MEMB     31       POPC     H14B     HL       0.250000       1.00800           0
      4904 MEMB     31       POPC     H14C     HL       0.250000       1.00800           0
      4905 MEMB     31       POPC     C15      CTL5    -0.350000       12.0110           0
      4906 MEMB     31       POPC     H15A     HL       0.250000       1.00800           0
      4907 MEMB     31       POPC     H15B     HL       0.250000       1.00800           0
      4908 MEMB     31       POPC     H15C     HL       0.250000       1.00800           0
      4909 MEMB     31       POPC     C11      CTL2    -0.800000E-01   12.0110           0
      4910 MEMB     31       POPC     H11A     HAL2     0.900000E-01   1.00800           0
      4911 MEMB     31       POPC     H11B     HAL2     0.900000E-01   1.00800           0
      4912 MEMB     31       POPC     P        PL        1.50000       30.9740           0
      4913 MEMB     31       POPC     O13      O2L     -0.780000       15.9994           0
      4914 MEMB     31       POPC     O14      O2L     -0.780000       15.9994           0
      4915 MEMB     31       POPC     O12      OSLP    -0.570000       15.9994           0
      4916 MEMB     31       POPC     O11      OSLP    -0.570000       15.9994           0
      4917 MEMB     31       POPC     C1       CTL2    -0.800000E-01   12.0110           0
      4918 MEMB     31       POPC     HA       HAL2     0.900000E-01   1.00800           0
      4919 MEMB     31       POPC     HB       HAL2     0.900000E-01   1.00800           0
      4920 MEMB     31       POPC     C2       CTL1     0.170000       12.0110           0
      4921 MEMB     31       POPC     HS       HAL1     0.900000E-01   1.00800           0
      4922 MEMB     31       POPC     O21      OSL     -0.490000       15.9994           0
      4923 MEMB     31       POPC     C21      CL       0.900000       12.0110           0
      4924 MEMB     31       POPC     O22      OBL     -0.630000       15.9994           0
      4925 MEMB     31       POPC     C22      CTL2    -0.220000       12.0110           0
      4926 MEMB     31       POPC     H2R      HAL2     0.900000E-01   1.00800           0
      4927 MEMB     31       POPC     H2S      HAL2     0.900000E-01   1.00800           0
      4928 MEMB     31       POPC     C3       CTL2     0.800000E-01   12.0110           0
      4929 MEMB     31       POPC     HX       HAL2     0.900000E-01   1.00800           0
      4930 MEMB     31       POPC     HY       HAL2     0.900000E-01   1.00800           0
      4931 MEMB     31       POPC     O31      OSL     -0.490000       15.9994           0
      4932 MEMB     31       POPC     C31      CL       0.900000       12.0110           0
      4933 MEMB     31       POPC     O32      OBL     -0.630000       15.9994           0
      4934 MEMB     31       POPC     C32      CTL2    -0.220000       12.0110           0
      4935 MEMB     31       POPC     H2X      HAL2     0.900000E-01   1.00800           0
      4936 MEMB     31       POPC     H2Y      HAL2     0.900000E-01   1.00800           0
      4937 MEMB     31       POPC     C23      CTL2    -0.180000       12.0110           0
      4938 MEMB     31       POPC     H3R      HAL2     0.900000E-01   1.00800           0
      4939 MEMB     31       POPC     H3S      HAL2     0.900000E-01   1.00800           0
      4940 MEMB     31       POPC     C24      CTL2    -0.180000       12.0110           0
      4941 MEMB     31       POPC     H4R      HAL2     0.900000E-01   1.00800           0
      4942 MEMB     31       POPC     H4S      HAL2     0.900000E-01   1.00800           0
      4943 MEMB     31       POPC     C25      CTL2    -0.180000       12.0110           0
      4944 MEMB     31       POPC     H5R      HAL2     0.900000E-01   1.00800           0
      4945 MEMB     31       POPC     H5S      HAL2     0.900000E-01   1.00800           0
      4946 MEMB     31       POPC     C26      CTL2    -0.180000       12.0110           0
      4947 MEMB     31       POPC     H6R      HAL2     0.900000E-01   1.00800           0
      4948 MEMB     31       POPC     H6S      HAL2     0.900000E-01   1.00800           0
      4949 MEMB     31       POPC     C27      CTL2    -0.180000       12.0110           0
      4950 MEMB     31       POPC     H7R      HAL2     0.900000E-01   1.00800           0
      4951 MEMB     31       POPC     H7S      HAL2     0.900000E-01   1.00800           0
      4952 MEMB     31       POPC     C28      CTL2    -0.180000       12.0110           0
      4953 MEMB     31       POPC     H8R      HAL2     0.900000E-01   1.00800           0
      4954 MEMB     31       POPC     H8S      HAL2     0.900000E-01   1.00800           0
      4955 MEMB     31       POPC     C29      CEL1    -0.150000       12.0110           0
      4956 MEMB     31       POPC     H91      HEL1     0.150000       1.00800           0
      4957 MEMB     31       POPC     C210     CEL1    -0.150000       12.0110           0
      4958 MEMB     31       POPC     H101     HEL1     0.150000       1.00800           0
      4959 MEMB     31       POPC     C211     CTL2    -0.180000       12.0110           0
      4960 MEMB     31       POPC     H11R     HAL2     0.900000E-01   1.00800           0
      4961 MEMB     31       POPC     H11S     HAL2     0.900000E-01   1.00800           0
      4962 MEMB     31       POPC     C212     CTL2    -0.180000       12.0110           0
      4963 MEMB     31       POPC     H12R     HAL2     0.900000E-01   1.00800           0
      4964 MEMB     31       POPC     H12S     HAL2     0.900000E-01   1.00800           0
      4965 MEMB     31       POPC     C213     CTL2    -0.180000       12.0110           0
      4966 MEMB     31       POPC     H13R     HAL2     0.900000E-01   1.00800           0
      4967 MEMB     31       POPC     H13S     HAL2     0.900000E-01   1.00800           0
      4968 MEMB     31       POPC     C214     CTL2    -0.180000       12.0110           0
      4969 MEMB     31       POPC     H14R     HAL2     0.900000E-01   1.00800           0
      4970 MEMB     31       POPC     H14S     HAL2     0.900000E-01   1.00800           0
      4971 MEMB     31       POPC     C215     CTL2    -0.180000       12.0110           0
      4972 MEMB     31       POPC     H15R     HAL2     0.900000E-01   1.00800           0
      4973 MEMB     31       POPC     H15S     HAL2     0.900000E-01   1.00800           0
      4974 MEMB     31       POPC     C216     CTL2    -0.180000       12.0110           0
      4975 MEMB     31       POPC     H16R     HAL2     0.900000E-01   1.00800           0
      4976 MEMB     31       POPC     H16S     HAL2     0.900000E-01   1.00800           0
      4977 MEMB     31       POPC     C217     CTL2    -0.180000       12.0110           0
      4978 MEMB     31       POPC     H17R     HAL2     0.900000E-01   1.00800           0
      4979 MEMB     31       POPC     H17S     HAL2     0.900000E-01   1.00800           0
      4980 MEMB     31       POPC     C218     CTL3    -0.270000       12.0110           0
      4981 MEMB     31       POPC     H18R     HAL3     0.900000E-01   1.00800           0
      4982 MEMB     31       POPC     H18S     HAL3     0.900000E-01   1.00800           0
      4983 MEMB     31       POPC     H18T     HAL3     0.900000E-01   1.00800           0
      4984 MEMB     31       POPC     C33      CTL2    -0.180000       12.0110           0
      4985 MEMB     31       POPC     H3X      HAL2     0.900000E-01   1.00800           0
      4986 MEMB     31       POPC     H3Y      HAL2     0.900000E-01   1.00800           0
      4987 MEMB     31       POPC     C34      CTL2    -0.180000       12.0110           0
      4988 MEMB     31       POPC     H4X      HAL2     0.900000E-01   1.00800           0
      4989 MEMB     31       POPC     H4Y      HAL2     0.900000E-01   1.00800           0
      4990 MEMB     31       POPC     C35      CTL2    -0.180000       12.0110           0
      4991 MEMB     31       POPC     H5X      HAL2     0.900000E-01   1.00800           0
      4992 MEMB     31       POPC     H5Y      HAL2     0.900000E-01   1.00800           0
      4993 MEMB     31       POPC     C36      CTL2    -0.180000       12.0110           0
      4994 MEMB     31       POPC     H6X      HAL2     0.900000E-01   1.00800           0
      4995 MEMB     31       POPC     H6Y      HAL2     0.900000E-01   1.00800           0
      4996 MEMB     31       POPC     C37      CTL2    -0.180000       12.0110           0
      4997 MEMB     31       POPC     H7X      HAL2     0.900000E-01   1.00800           0
      4998 MEMB     31       POPC     H7Y      HAL2     0.900000E-01   1.00800           0
      4999 MEMB     31       POPC     C38      CTL2    -0.180000       12.0110           0
      5000 MEMB     31       POPC     H8X      HAL2     0.900000E-01   1.00800           0
      5001 MEMB     31       POPC     H8Y      HAL2     0.900000E-01   1.00800           0
      5002 MEMB     31       POPC     C39      CTL2    -0.180000       12.0110           0
      5003 MEMB     31       POPC     H9X      HAL2     0.900000E-01   1.00800           0
      5004 MEMB     31       POPC     H9Y      HAL2     0.900000E-01   1.00800           0
      5005 MEMB     31       POPC     C310     CTL2    -0.180000       12.0110           0
      5006 MEMB     31       POPC     H10X     HAL2     0.900000E-01   1.00800           0
      5007 MEMB     31       POPC     H10Y     HAL2     0.900000E-01   1.00800           0
      5008 MEMB     31       POPC     C311     CTL2    -0.180000       12.0110           0
      5009 MEMB     31       POPC     H11X     HAL2     0.900000E-01   1.00800           0
      5010 MEMB     31       POPC     H11Y     HAL2     0.900000E-01   1.00800           0
      5011 MEMB     31       POPC     C312     CTL2    -0.180000       12.0110           0
      5012 MEMB     31       POPC     H12X     HAL2     0.900000E-01   1.00800           0
      5013 MEMB     31       POPC     H12Y     HAL2     0.900000E-01   1.00800           0
      5014 MEMB     31       POPC     C313     CTL2    -0.180000       12.0110           0
      5015 MEMB     31       POPC     H13X     HAL2     0.900000E-01   1.00800           0
      5016 MEMB     31       POPC     H13Y     HAL2     0.900000E-01   1.00800           0
      5017 MEMB     31       POPC     C314     CTL2    -0.180000       12.0110           0
      5018 MEMB     31       POPC     H14X     HAL2     0.900000E-01   1.00800           0
      5019 MEMB     31       POPC     H14Y     HAL2     0.900000E-01   1.00800           0
      5020 MEMB     31       POPC     C315     CTL2    -0.180000       12.0110           0
      5021 MEMB     31       POPC     H15X     HAL2     0.900000E-01   1.00800           0
      5022 MEMB     31       POPC     H15Y     HAL2     0.900000E-01   1.00800           0
      5023 MEMB     31       POPC     C316     CTL3    -0.270000       12.0110           0
      5024 MEMB     31       POPC     H16X     HAL3     0.900000E-01   1.00800           0
      5025 MEMB     31       POPC     H16Y     HAL3     0.900000E-01   1.00800           0
      5026 MEMB     31       POPC     H16Z     HAL3     0.900000E-01   1.00800           0
      5027 MEMB     32       POPC     N        NTL     -0.600000       14.0070           0
      5028 MEMB     32       POPC     C12      CTL2    -0.100000       12.0110           0
      5029 MEMB     32       POPC     H12A     HL       0.250000       1.00800           0
      5030 MEMB     32       POPC     H12B     HL       0.250000       1.00800           0
      5031 MEMB     32       POPC     C13      CTL5    -0.350000       12.0110           0
      5032 MEMB     32       POPC     H13A     HL       0.250000       1.00800           0
      5033 MEMB     32       POPC     H13B     HL       0.250000       1.00800           0
      5034 MEMB     32       POPC     H13C     HL       0.250000       1.00800           0
      5035 MEMB     32       POPC     C14      CTL5    -0.350000       12.0110           0
      5036 MEMB     32       POPC     H14A     HL       0.250000       1.00800           0
      5037 MEMB     32       POPC     H14B     HL       0.250000       1.00800           0
      5038 MEMB     32       POPC     H14C     HL       0.250000       1.00800           0
      5039 MEMB     32       POPC     C15      CTL5    -0.350000       12.0110           0
      5040 MEMB     32       POPC     H15A     HL       0.250000       1.00800           0
      5041 MEMB     32       POPC     H15B     HL       0.250000       1.00800           0
      5042 MEMB     32       POPC     H15C     HL       0.250000       1.00800           0
      5043 MEMB     32       POPC     C11      CTL2    -0.800000E-01   12.0110           0
      5044 MEMB     32       POPC     H11A     HAL2     0.900000E-01   1.00800           0
      5045 MEMB     32       POPC     H11B     HAL2     0.900000E-01   1.00800           0
      5046 MEMB     32       POPC     P        PL        1.50000       30.9740           0
      5047 MEMB     32       POPC     O13      O2L     -0.780000       15.9994           0
      5048 MEMB     32       POPC     O14      O2L     -0.780000       15.9994           0
      5049 MEMB     32       POPC     O12      OSLP    -0.570000       15.9994           0
      5050 MEMB     32       POPC     O11      OSLP    -0.570000       15.9994           0
      5051 MEMB     32       POPC     C1       CTL2    -0.800000E-01   12.0110           0
      5052 MEMB     32       POPC     HA       HAL2     0.900000E-01   1.00800           0
      5053 MEMB     32       POPC     HB       HAL2     0.900000E-01   1.00800           0
      5054 MEMB     32       POPC     C2       CTL1     0.170000       12.0110           0
      5055 MEMB     32       POPC     HS       HAL1     0.900000E-01   1.00800           0
      5056 MEMB     32       POPC     O21      OSL     -0.490000       15.9994           0
      5057 MEMB     32       POPC     C21      CL       0.900000       12.0110           0
      5058 MEMB     32       POPC     O22      OBL     -0.630000       15.9994           0
      5059 MEMB     32       POPC     C22      CTL2    -0.220000       12.0110           0
      5060 MEMB     32       POPC     H2R      HAL2     0.900000E-01   1.00800           0
      5061 MEMB     32       POPC     H2S      HAL2     0.900000E-01   1.00800           0
      5062 MEMB     32       POPC     C3       CTL2     0.800000E-01   12.0110           0
      5063 MEMB     32       POPC     HX       HAL2     0.900000E-01   1.00800           0
      5064 MEMB     32       POPC     HY       HAL2     0.900000E-01   1.00800           0
      5065 MEMB     32       POPC     O31      OSL     -0.490000       15.9994           0
      5066 MEMB     32       POPC     C31      CL       0.900000       12.0110           0
      5067 MEMB     32       POPC     O32      OBL     -0.630000       15.9994           0
      5068 MEMB     32       POPC     C32      CTL2    -0.220000       12.0110           0
      5069 MEMB     32       POPC     H2X      HAL2     0.900000E-01   1.00800           0
      5070 MEMB     32       POPC     H2Y      HAL2     0.900000E-01   1.00800           0
      5071 MEMB     32       POPC     C23      CTL2    -0.180000       12.0110           0
      5072 MEMB     32       POPC     H3R      HAL2     0.900000E-01   1.00800           0
      5073 MEMB     32       POPC     H3S      HAL2     0.900000E-01   1.00800           0
      5074 MEMB     32       POPC     C24      CTL2    -0.180000       12.0110           0
      5075 MEMB     32       POPC     H4R      HAL2     0.900000E-01   1.00800           0
      5076 MEMB     32       POPC     H4S      HAL2     0.900000E-01   1.00800           0
      5077 MEMB     32       POPC     C25      CTL2    -0.180000       12.0110           0
      5078 MEMB     32       POPC     H5R      HAL2     0.900000E-01   1.00800           0
      5079 MEMB     32       POPC     H5S      HAL2     0.900000E-01   1.00800           0
      5080 MEMB     32       POPC     C26      CTL2    -0.180000       12.0110           0
      5081 MEMB     32       POPC     H6R      HAL2     0.900000E-01   1.00800           0
      5082 MEMB     32       POPC     H6S      HAL2     0.900000E-01   1.00800           0
      5083 MEMB     32       POPC     C27      CTL2    -0.180000       12.0110           0
      5084 MEMB     32       POPC     H7R      HAL2     0.900000E-01   1.00800           0
      5085 MEMB     32       POPC     H7S      HAL2     0.900000E-01   1.00800           0
      5086 MEMB     32       POPC     C28      CTL2    -0.180000       12.0110           0
      5087 MEMB     32       POPC     H8R      HAL2     0.900000E-01   1.00800           0
      5088 MEMB     32       POPC     H8S      HAL2     0.900000E-01   1.00800           0
      5089 MEMB     32       POPC     C29      CEL1    -0.150000       12.0110           0
      5090 MEMB     32       POPC     H91      HEL1     0.150000       1.00800           0
      5091 MEMB     32       POPC     C210     CEL1    -0.150000       12.0110           0
      5092 MEMB     32       POPC     H101     HEL1     0.150000       1.00800           0
      5093 MEMB     32       POPC     C211     CTL2    -0.180000       12.0110           0
      5094 MEMB     32       POPC     H11R     HAL2     0.900000E-01   1.00800           0
      5095 MEMB     32       POPC     H11S     HAL2     0.900000E-01   1.00800           0
      5096 MEMB     32       POPC     C212     CTL2    -0.180000       12.0110           0
      5097 MEMB     32       POPC     H12R     HAL2     0.900000E-01   1.00800           0
      5098 MEMB     32       POPC     H12S     HAL2     0.900000E-01   1.00800           0
      5099 MEMB     32       POPC     C213     CTL2    -0.180000       12.0110           0
      5100 MEMB     32       POPC     H13R     HAL2     0.900000E-01   1.00800           0
      5101 MEMB     32       POPC     H13S     HAL2     0.900000E-01   1.00800           0
      5102 MEMB     32       POPC     C214     CTL2    -0.180000       12.0110           0
      5103 MEMB     32       POPC     H14R     HAL2     0.900000E-01   1.00800           0
      5104 MEMB     32       POPC     H14S     HAL2     0.900000E-01   1.00800           0
      5105 MEMB     32       POPC     C215     CTL2    -0.180000       12.0110           0
      5106 MEMB     32       POPC     H15R     HAL2     0.900000E-01   1.00800           0
      5107 MEMB     32       POPC     H15S     HAL2     0.900000E-01   1.00800           0
      5108 MEMB     32       POPC     C216     CTL2    -0.180000       12.0110           0
      5109 MEMB     32       POPC     H16R     HAL2     0.900000E-01   1.00800           0
      5110 MEMB     32       POPC     H16S     HAL2     0.900000E-01   1.00800           0
      5111 MEMB     32       POPC     C217     CTL2    -0.180000       12.0110           0
      5112 MEMB     32       POPC     H17R     HAL2     0.900000E-01   1.00800           0
      5113 MEMB     32       POPC     H17S     HAL2     0.900000E-01   1.00800           0
      5114 MEMB     32       POPC     C218     CTL3    -0.270000       12.0110           0
      5115 MEMB     32       POPC     H18R     HAL3     0.900000E-01   1.00800           0
      5116 MEMB     32       POPC     H18S     HAL3     0.900000E-01   1.00800           0
      5117 MEMB     32       POPC     H18T     HAL3     0.900000E-01   1.00800           0
      5118 MEMB     32       POPC     C33      CTL2    -0.180000       12.0110           0
      5119 MEMB     32       POPC     H3X      HAL2     0.900000E-01   1.00800           0
      5120 MEMB     32       POPC     H3Y      HAL2     0.900000E-01   1.00800           0
      5121 MEMB     32       POPC     C34      CTL2    -0.180000       12.0110           0
      5122 MEMB     32       POPC     H4X      HAL2     0.900000E-01   1.00800           0
      5123 MEMB     32       POPC     H4Y      HAL2     0.900000E-01   1.00800           0
      5124 MEMB     32       POPC     C35      CTL2    -0.180000       12.0110           0
      5125 MEMB     32       POPC     H5X      HAL2     0.900000E-01   1.00800           0
      5126 MEMB     32       POPC     H5Y      HAL2     0.900000E-01   1.00800           0
      5127 MEMB     32       POPC     C36      CTL2    -0.180000       12.0110           0
      5128 MEMB     32       POPC     H6X      HAL2     0.900000E-01   1.00800           0
      5129 MEMB     32       POPC     H6Y      HAL2     0.900000E-01   1.00800           0
      5130 MEMB     32       POPC     C37      CTL2    -0.180000       12.0110           0
      5131 MEMB     32       POPC     H7X      HAL2     0.900000E-01   1.00800           0
      5132 MEMB     32       POPC     H7Y      HAL2     0.900000E-01   1.00800           0
      5133 MEMB     32       POPC     C38      CTL2    -0.180000       12.0110           0
      5134 MEMB     32       POPC     H8X      HAL2     0.900000E-01   1.00800           0
      5135 MEMB     32       POPC     H8Y      HAL2     0.900000E-01   1.00800           0
      5136 MEMB     32       POPC     C39      CTL2    -0.180000       12.0110           0
      5137 MEMB     32       POPC     H9X      HAL2     0.900000E-01   1.00800           0
      5138 MEMB     32       POPC     H9Y      HAL2     0.900000E-01   1.00800           0
      5139 MEMB     32       POPC     C310     CTL2    -0.180000       12.0110           0
      5140 MEMB     32       POPC     H10X     HAL2     0.900000E-01   1.00800           0
      5141 MEMB     32       POPC     H10Y     HAL2     0.900000E-01   1.00800           0
      5142 MEMB     32       POPC     C311     CTL2    -0.180000       12.0110           0
      5143 MEMB     32       POPC     H11X     HAL2     0.900000E-01   1.00800           0
      5144 MEMB     32       POPC     H11Y     HAL2     0.900000E-01   1.00800           0
      5145 MEMB     32       POPC     C312     CTL2    -0.180000       12.0110           0
      5146 MEMB     32       POPC     H12X     HAL2     0.900000E-01   1.00800           0
      5147 MEMB     32       POPC     H12Y     HAL2     0.900000E-01   1.00800           0
      5148 MEMB     32       POPC     C313     CTL2    -0.180000       12.0110           0
      5149 MEMB     32       POPC     H13X     HAL2     0.900000E-01   1.00800           0
      5150 MEMB     32       POPC     H13Y     HAL2     0.900000E-01   1.00800           0
      5151 MEMB     32       POPC     C314     CTL2    -0.180000       12.0110           0
      5152 MEMB     32       POPC     H14X     HAL2     0.900000E-01   1.00800           0
      5153 MEMB     32       POPC     H14Y     HAL2     0.900000E-01   1.00800           0
      5154 MEMB     32       POPC     C315     CTL2    -0.180000       12.0110           0
      5155 MEMB     32       POPC     H15X     HAL2     0.900000E-01   1.00800           0
      5156 MEMB     32       POPC     H15Y     HAL2     0.900000E-01   1.00800           0
      5157 MEMB     32       POPC     C316     CTL3    -0.270000       12.0110           0
      5158 MEMB     32       POPC     H16X     HAL3     0.900000E-01   1.00800           0
      5159 MEMB     32       POPC     H16Y     HAL3     0.900000E-01   1.00800           0
      5160 MEMB     32       POPC     H16Z     HAL3     0.900000E-01   1.00800           0
      5161 MEMB     33       POPC     N        NTL     -0.600000       14.0070           0
      5162 MEMB     33       POPC     C12      CTL2    -0.100000       12.0110           0
      5163 MEMB     33       POPC     H12A     HL       0.250000       1.00800           0
      5164 MEMB     33       POPC     H12B     HL       0.250000       1.00800           0
      5165 MEMB     33       POPC     C13      CTL5    -0.350000       12.0110           0
      5166 MEMB     33       POPC     H13A     HL       0.250000       1.00800           0
      5167 MEMB     33       POPC     H13B     HL       0.250000       1.00800           0
      5168 MEMB     33       POPC     H13C     HL       0.250000       1.00800           0
      5169 MEMB     33       POPC     C14      CTL5    -0.350000       12.0110           0
      5170 MEMB     33       POPC     H14A     HL       0.250000       1.00800           0
      5171 MEMB     33       POPC     H14B     HL       0.250000       1.00800           0
      5172 MEMB     33       POPC     H14C     HL       0.250000       1.00800           0
      5173 MEMB     33       POPC     C15      CTL5    -0.350000       12.0110           0
      5174 MEMB     33       POPC     H15A     HL       0.250000       1.00800           0
      5175 MEMB     33       POPC     H15B     HL       0.250000       1.00800           0
      5176 MEMB     33       POPC     H15C     HL       0.250000       1.00800           0
      5177 MEMB     33       POPC     C11      CTL2    -0.800000E-01   12.0110           0
      5178 MEMB     33       POPC     H11A     HAL2     0.900000E-01   1.00800           0
      5179 MEMB     33       POPC     H11B     HAL2     0.900000E-01   1.00800           0
      5180 MEMB     33       POPC     P        PL        1.50000       30.9740           0
      5181 MEMB     33       POPC     O13      O2L     -0.780000       15.9994           0
      5182 MEMB     33       POPC     O14      O2L     -0.780000       15.9994           0
      5183 MEMB     33       POPC     O12      OSLP    -0.570000       15.9994           0
      5184 MEMB     33       POPC     O11      OSLP    -0.570000       15.9994           0
      5185 MEMB     33       POPC     C1       CTL2    -0.800000E-01   12.0110           0
      5186 MEMB     33       POPC     HA       HAL2     0.900000E-01   1.00800           0
      5187 MEMB     33       POPC     HB       HAL2     0.900000E-01   1.00800           0
      5188 MEMB     33       POPC     C2       CTL1     0.170000       12.0110           0
      5189 MEMB     33       POPC     HS       HAL1     0.900000E-01   1.00800           0
      5190 MEMB     33       POPC     O21      OSL     -0.490000       15.9994           0
      5191 MEMB     33       POPC     C21      CL       0.900000       12.0110           0
      5192 MEMB     33       POPC     O22      OBL     -0.630000       15.9994           0
      5193 MEMB     33       POPC     C22      CTL2    -0.220000       12.0110           0
      5194 MEMB     33       POPC     H2R      HAL2     0.900000E-01   1.00800           0
      5195 MEMB     33       POPC     H2S      HAL2     0.900000E-01   1.00800           0
      5196 MEMB     33       POPC     C3       CTL2     0.800000E-01   12.0110           0
      5197 MEMB     33       POPC     HX       HAL2     0.900000E-01   1.00800           0
      5198 MEMB     33       POPC     HY       HAL2     0.900000E-01   1.00800           0
      5199 MEMB     33       POPC     O31      OSL     -0.490000       15.9994           0
      5200 MEMB     33       POPC     C31      CL       0.900000       12.0110           0
      5201 MEMB     33       POPC     O32      OBL     -0.630000       15.9994           0
      5202 MEMB     33       POPC     C32      CTL2    -0.220000       12.0110           0
      5203 MEMB     33       POPC     H2X      HAL2     0.900000E-01   1.00800           0
      5204 MEMB     33       POPC     H2Y      HAL2     0.900000E-01   1.00800           0
      5205 MEMB     33       POPC     C23      CTL2    -0.180000       12.0110           0
      5206 MEMB     33       POPC     H3R      HAL2     0.900000E-01   1.00800           0
      5207 MEMB     33       POPC     H3S      HAL2     0.900000E-01   1.00800           0
      5208 MEMB     33       POPC     C24      CTL2    -0.180000       12.0110           0
      5209 MEMB     33       POPC     H4R      HAL2     0.900000E-01   1.00800           0
      5210 MEMB     33       POPC     H4S      HAL2     0.900000E-01   1.00800           0
      5211 MEMB     33       POPC     C25      CTL2    -0.180000       12.0110           0
      5212 MEMB     33       POPC     H5R      HAL2     0.900000E-01   1.00800           0
      5213 MEMB     33       POPC     H5S      HAL2     0.900000E-01   1.00800           0
      5214 MEMB     33       POPC     C26      CTL2    -0.180000       12.0110           0
      5215 MEMB     33       POPC     H6R      HAL2     0.900000E-01   1.00800           0
      5216 MEMB     33       POPC     H6S      HAL2     0.900000E-01   1.00800           0
      5217 MEMB     33       POPC     C27      CTL2    -0.180000       12.0110           0
      5218 MEMB     33       POPC     H7R      HAL2     0.900000E-01   1.00800           0
      5219 MEMB     33       POPC     H7S      HAL2     0.900000E-01   1.00800           0
      5220 MEMB     33       POPC     C28      CTL2    -0.180000       12.0110           0
      5221 MEMB     33       POPC     H8R      HAL2     0.900000E-01   1.00800           0
      5222 MEMB     33       POPC     H8S      HAL2     0.900000E-01   1.00800           0
      5223 MEMB     33       POPC     C29      CEL1    -0.150000       12.0110           0
      5224 MEMB     33       POPC     H91      HEL1     0.150000       1.00800           0
      5225 MEMB     33       POPC     C210     CEL1    -0.150000       12.0110           0
      5226 MEMB     33       POPC     H101     HEL1     0.150000       1.00800           0
      5227 MEMB     33       POPC     C211     CTL2    -0.180000       12.0110           0
      5228 MEMB     33       POPC     H11R     HAL2     0.900000E-01   1.00800           0
      5229 MEMB     33       POPC     H11S     HAL2     0.900000E-01   1.00800           0
      5230 MEMB     33       POPC     C212     CTL2    -0.180000       12.0110           0
      5231 MEMB     33       POPC     H12R     HAL2     0.900000E-01   1.00800           0
      5232 MEMB     33       POPC     H12S     HAL2     0.900000E-01   1.00800           0
      5233 MEMB     33       POPC     C213     CTL2    -0.180000       12.0110           0
      5234 MEMB     33       POPC     H13R     HAL2     0.900000E-01   1.00800           0
      5235 MEMB     33       POPC     H13S     HAL2     0.900000E-01   1.00800           0
      5236 MEMB     33       POPC     C214     CTL2    -0.180000       12.0110           0
      5237 MEMB     33       POPC     H14R     HAL2     0.900000E-01   1.00800           0
      5238 MEMB     33       POPC     H14S     HAL2     0.900000E-01   1.00800           0
      5239 MEMB     33       POPC     C215     CTL2    -0.180000       12.0110           0
      5240 MEMB     33       POPC     H15R     HAL2     0.900000E-01   1.00800           0
      5241 MEMB     33       POPC     H15S     HAL2     0.900000E-01   1.00800           0
      5242 MEMB     33       POPC     C216     CTL2    -0.180000       12.0110           0
      5243 MEMB     33       POPC     H16R     HAL2     0.900000E-01   1.00800           0
      5244 MEMB     33       POPC     H16S     HAL2     0.900000E-01   1.00800           0
      5245 MEMB     33       POPC     C217     CTL2    -0.180000       12.0110           0
      5246 MEMB     33       POPC     H17R     HAL2     0.900000E-01   1.00800           0
      5247 MEMB     33       POPC     H17S     HAL2     0.900000E-01   1.00800           0
      5248 MEMB     33       POPC     C218     CTL3    -0.270000       12.0110           0
      5249 MEMB     33       POPC     H18R     HAL3     0.900000E-01   1.00800           0
      5250 MEMB     33       POPC     H18S     HAL3     0.900000E-01   1.00800           0
      5251 MEMB     33       POPC     H18T     HAL3     0.900000E-01   1.00800           0
      5252 MEMB     33       POPC     C33      CTL2    -0.180000       12.0110           0
      5253 MEMB     33       POPC     H3X      HAL2     0.900000E-01   1.00800           0
      5254 MEMB     33       POPC     H3Y      HAL2     0.900000E-01   1.00800           0
      5255 MEMB     33       POPC     C34      CTL2    -0.180000       12.0110           0
      5256 MEMB     33       POPC     H4X      HAL2     0.900000E-01   1.00800           0
      5257 MEMB     33       POPC     H4Y      HAL2     0.900000E-01   1.00800           0
      5258 MEMB     33       POPC     C35      CTL2    -0.180000       12.0110           0
      5259 MEMB     33       POPC     H5X      HAL2     0.900000E-01   1.00800           0
      5260 MEMB     33       POPC     H5Y      HAL2     0.900000E-01   1.00800           0
      5261 MEMB     33       POPC     C36      CTL2    -0.180000       12.0110           0
      5262 MEMB     33       POPC     H6X      HAL2     0.900000E-01   1.00800           0
      5263 MEMB     33       POPC     H6Y      HAL2     0.900000E-01   1.00800           0
      5264 MEMB     33       POPC     C37      CTL2    -0.180000       12.0110           0
      5265 MEMB     33       POPC     H7X      HAL2     0.900000E-01   1.00800           0
      5266 MEMB     33       POPC     H7Y      HAL2     0.900000E-01   1.00800           0
      5267 MEMB     33       POPC     C38      CTL2    -0.180000       12.0110           0
      5268 MEMB     33       POPC     H8X      HAL2     0.900000E-01   1.00800           0
      5269 MEMB     33       POPC     H8Y      HAL2     0.900000E-01   1.00800           0
      5270 MEMB     33       POPC     C39      CTL2    -0.180000       12.0110           0
      5271 MEMB     33       POPC     H9X      HAL2     0.900000E-01   1.00800           0
      5272 MEMB     33       POPC     H9Y      HAL2     0.900000E-01   1.00800           0
      5273 MEMB     33       POPC     C310     CTL2    -0.180000       12.0110           0
      5274 MEMB     33       POPC     H10X     HAL2     0.900000E-01   1.00800           0
      5275 MEMB     33       POPC     H10Y     HAL2     0.900000E-01   1.00800           0
      5276 MEMB     33       POPC     C311     CTL2    -0.180000       12.0110           0
      5277 MEMB     33       POPC     H11X     HAL2     0.900000E-01   1.00800           0
      5278 MEMB     33       POPC     H11Y     HAL2     0.900000E-01   1.00800           0
      5279 MEMB     33       POPC     C312     CTL2    -0.180000       12.0110           0
      5280 MEMB     33       POPC     H12X     HAL2     0.900000E-01   1.00800           0
      5281 MEMB     33       POPC     H12Y     HAL2     0.900000E-01   1.00800           0
      5282 MEMB     33       POPC     C313     CTL2    -0.180000       12.0110           0
      5283 MEMB     33       POPC     H13X     HAL2     0.900000E-01   1.00800           0
      5284 MEMB     33       POPC     H13Y     HAL2     0.900000E-01   1.00800           0
      5285 MEMB     33       POPC     C314     CTL2    -0.180000       12.0110           0
      5286 MEMB     33       POPC     H14X     HAL2     0.900000E-01   1.00800           0
      5287 MEMB     33       POPC     H14Y     HAL2     0.900000E-01   1.00800           0
      5288 MEMB     33       POPC     C315     CTL2    -0.180000       12.0110           0
      5289 MEMB     33       POPC     H15X     HAL2     0.900000E-01   1.00800           0
      5290 MEMB     33       POPC     H15Y     HAL2     0.900000E-01   1.00800           0
      5291 MEMB     33       POPC     C316     CTL3    -0.270000       12.0110           0
      5292 MEMB     33       POPC     H16X     HAL3     0.900000E-01   1.00800           0
      5293 MEMB     33       POPC     H16Y     HAL3     0.900000E-01   1.00800           0
      5294 MEMB     33       POPC     H16Z     HAL3     0.900000E-01   1.00800           0
      5295 MEMB     34       POPC     N        NTL     -0.600000       14.0070           0
      5296 MEMB     34       POPC     C12      CTL2    -0.100000       12.0110           0
      5297 MEMB     34       POPC     H12A     HL       0.250000       1.00800           0
      5298 MEMB     34       POPC     H12B     HL       0.250000       1.00800           0
      5299 MEMB     34       POPC     C13      CTL5    -0.350000       12.0110           0
      5300 MEMB     34       POPC     H13A     HL       0.250000       1.00800           0
      5301 MEMB     34       POPC     H13B     HL       0.250000       1.00800           0
      5302 MEMB     34       POPC     H13C     HL       0.250000       1.00800           0
      5303 MEMB     34       POPC     C14      CTL5    -0.350000       12.0110           0
      5304 MEMB     34       POPC     H14A     HL       0.250000       1.00800           0
      5305 MEMB     34       POPC     H14B     HL       0.250000       1.00800           0
      5306 MEMB     34       POPC     H14C     HL       0.250000       1.00800           0
      5307 MEMB     34       POPC     C15      CTL5    -0.350000       12.0110           0
      5308 MEMB     34       POPC     H15A     HL       0.250000       1.00800           0
      5309 MEMB     34       POPC     H15B     HL       0.250000       1.00800           0
      5310 MEMB     34       POPC     H15C     HL       0.250000       1.00800           0
      5311 MEMB     34       POPC     C11      CTL2    -0.800000E-01   12.0110           0
      5312 MEMB     34       POPC     H11A     HAL2     0.900000E-01   1.00800           0
      5313 MEMB     34       POPC     H11B     HAL2     0.900000E-01   1.00800           0
      5314 MEMB     34       POPC     P        PL        1.50000       30.9740           0
      5315 MEMB     34       POPC     O13      O2L     -0.780000       15.9994           0
      5316 MEMB     34       POPC     O14      O2L     -0.780000       15.9994           0
      5317 MEMB     34       POPC     O12      OSLP    -0.570000       15.9994           0
      5318 MEMB     34       POPC     O11      OSLP    -0.570000       15.9994           0
      5319 MEMB     34       POPC     C1       CTL2    -0.800000E-01   12.0110           0
      5320 MEMB     34       POPC     HA       HAL2     0.900000E-01   1.00800           0
      5321 MEMB     34       POPC     HB       HAL2     0.900000E-01   1.00800           0
      5322 MEMB     34       POPC     C2       CTL1     0.170000       12.0110           0
      5323 MEMB     34       POPC     HS       HAL1     0.900000E-01   1.00800           0
      5324 MEMB     34       POPC     O21      OSL     -0.490000       15.9994           0
      5325 MEMB     34       POPC     C21      CL       0.900000       12.0110           0
      5326 MEMB     34       POPC     O22      OBL     -0.630000       15.9994           0
      5327 MEMB     34       POPC     C22      CTL2    -0.220000       12.0110           0
      5328 MEMB     34       POPC     H2R      HAL2     0.900000E-01   1.00800           0
      5329 MEMB     34       POPC     H2S      HAL2     0.900000E-01   1.00800           0
      5330 MEMB     34       POPC     C3       CTL2     0.800000E-01   12.0110           0
      5331 MEMB     34       POPC     HX       HAL2     0.900000E-01   1.00800           0
      5332 MEMB     34       POPC     HY       HAL2     0.900000E-01   1.00800           0
      5333 MEMB     34       POPC     O31      OSL     -0.490000       15.9994           0
      5334 MEMB     34       POPC     C31      CL       0.900000       12.0110           0
      5335 MEMB     34       POPC     O32      OBL     -0.630000       15.9994           0
      5336 MEMB     34       POPC     C32      CTL2    -0.220000       12.0110           0
      5337 MEMB     34       POPC     H2X      HAL2     0.900000E-01   1.00800           0
      5338 MEMB     34       POPC     H2Y      HAL2     0.900000E-01   1.00800           0
      5339 MEMB     34       POPC     C23      CTL2    -0.180000       12.0110           0
      5340 MEMB     34       POPC     H3R      HAL2     0.900000E-01   1.00800           0
      5341 MEMB     34       POPC     H3S      HAL2     0.900000E-01   1.00800           0
      5342 MEMB     34       POPC     C24      CTL2    -0.180000       12.0110           0
      5343 MEMB     34       POPC     H4R      HAL2     0.900000E-01   1.00800           0
      5344 MEMB     34       POPC     H4S      HAL2     0.900000E-01   1.00800           0
      5345 MEMB     34       POPC     C25      CTL2    -0.180000       12.0110           0
      5346 MEMB     34       POPC     H5R      HAL2     0.900000E-01   1.00800           0
      5347 MEMB     34       POPC     H5S      HAL2     0.900000E-01   1.00800           0
      5348 MEMB     34       POPC     C26      CTL2    -0.180000       12.0110           0
      5349 MEMB     34       POPC     H6R      HAL2     0.900000E-01   1.00800           0
      5350 MEMB     34       POPC     H6S      HAL2     0.900000E-01   1.00800           0
      5351 MEMB     34       POPC     C27      CTL2    -0.180000       12.0110           0
      5352 MEMB     34       POPC     H7R      HAL2     0.900000E-01   1.00800           0
      5353 MEMB     34       POPC     H7S      HAL2     0.900000E-01   1.00800           0
      5354 MEMB     34       POPC     C28      CTL2    -0.180000       12.0110           0
      5355 MEMB     34       POPC     H8R      HAL2     0.900000E-01   1.00800           0
      5356 MEMB     34       POPC     H8S      HAL2     0.900000E-01   1.00800           0
      5357 MEMB     34       POPC     C29      CEL1    -0.150000       12.0110           0
      5358 MEMB     34       POPC     H91      HEL1     0.150000       1.00800           0
      5359 MEMB     34       POPC     C210     CEL1    -0.150000       12.0110           0
      5360 MEMB     34       POPC     H101     HEL1     0.150000       1.00800           0
      5361 MEMB     34       POPC     C211     CTL2    -0.180000       12.0110           0
      5362 MEMB     34       POPC     H11R     HAL2     0.900000E-01   1.00800           0
      5363 MEMB     34       POPC     H11S     HAL2     0.900000E-01   1.00800           0
      5364 MEMB     34       POPC     C212     CTL2    -0.180000       12.0110           0
      5365 MEMB     34       POPC     H12R     HAL2     0.900000E-01   1.00800           0
      5366 MEMB     34       POPC     H12S     HAL2     0.900000E-01   1.00800           0
      5367 MEMB     34       POPC     C213     CTL2    -0.180000       12.0110           0
      5368 MEMB     34       POPC     H13R     HAL2     0.900000E-01   1.00800           0
      5369 MEMB     34       POPC     H13S     HAL2     0.900000E-01   1.00800           0
      5370 MEMB     34       POPC     C214     CTL2    -0.180000       12.0110           0
      5371 MEMB     34       POPC     H14R     HAL2     0.900000E-01   1.00800           0
      5372 MEMB     34       POPC     H14S     HAL2     0.900000E-01   1.00800           0
      5373 MEMB     34       POPC     C215     CTL2    -0.180000       12.0110           0
      5374 MEMB     34       POPC     H15R     HAL2     0.900000E-01   1.00800           0
      5375 MEMB     34       POPC     H15S     HAL2     0.900000E-01   1.00800           0
      5376 MEMB     34       POPC     C216     CTL2    -0.180000       12.0110           0
      5377 MEMB     34       POPC     H16R     HAL2     0.900000E-01   1.00800           0
      5378 MEMB     34       POPC     H16S     HAL2     0.900000E-01   1.00800           0
      5379 MEMB     34       POPC     C217     CTL2    -0.180000       12.0110           0
      5380 MEMB     34       POPC     H17R     HAL2     0.900000E-01   1.00800           0
      5381 MEMB     34       POPC     H17S     HAL2     0.900000E-01   1.00800           0
      5382 MEMB     34       POPC     C218     CTL3    -0.270000       12.0110           0
      5383 MEMB     34       POPC     H18R     HAL3     0.900000E-01   1.00800           0
      5384 MEMB     34       POPC     H18S     HAL3     0.900000E-01   1.00800           0
      5385 MEMB     34       POPC     H18T     HAL3     0.900000E-01   1.00800           0
      5386 MEMB     34       POPC     C33      CTL2    -0.180000       12.0110           0
      5387 MEMB     34       POPC     H3X      HAL2     0.900000E-01   1.00800           0
      5388 MEMB     34       POPC     H3Y      HAL2     0.900000E-01   1.00800           0
      5389 MEMB     34       POPC     C34      CTL2    -0.180000       12.0110           0
      5390 MEMB     34       POPC     H4X      HAL2     0.900000E-01   1.00800           0
      5391 MEMB     34       POPC     H4Y      HAL2     0.900000E-01   1.00800           0
      5392 MEMB     34       POPC     C35      CTL2    -0.180000       12.0110           0
      5393 MEMB     34       POPC     H5X      HAL2     0.900000E-01   1.00800           0
      5394 MEMB     34       POPC     H5Y      HAL2     0.900000E-01   1.00800           0
      5395 MEMB     34       POPC     C36      CTL2    -0.180000       12.0110           0
      5396 MEMB     34       POPC     H6X      HAL2     0.900000E-01   1.00800           0
      5397 MEMB     34       POPC     H6Y      HAL2     0.900000E-01   1.00800           0
      5398 MEMB     34       POPC     C37      CTL2    -0.180000       12.0110           0
      5399 MEMB     34       POPC     H7X      HAL2     0.900000E-01   1.00800           0
      5400 MEMB     34       POPC     H7Y      HAL2     0.900000E-01   1.00800           0
      5401 MEMB     34       POPC     C38      CTL2    -0.180000       12.0110           0
      5402 MEMB     34       POPC     H8X      HAL2     0.900000E-01   1.00800           0
      5403 MEMB     34       POPC     H8Y      HAL2     0.900000E-01   1.00800           0
      5404 MEMB     34       POPC     C39      CTL2    -0.180000       12.0110           0
      5405 MEMB     34       POPC     H9X      HAL2     0.900000E-01   1.00800           0
      5406 MEMB     34       POPC     H9Y      HAL2     0.900000E-01   1.00800           0
      5407 MEMB     34       POPC     C310     CTL2    -0.180000       12.0110           0
      5408 MEMB     34       POPC     H10X     HAL2     0.900000E-01   1.00800           0
      5409 MEMB     34       POPC     H10Y     HAL2     0.900000E-01   1.00800           0
      5410 MEMB     34       POPC     C311     CTL2    -0.180000       12.0110           0
      5411 MEMB     34       POPC     H11X     HAL2     0.900000E-01   1.00800           0
      5412 MEMB     34       POPC     H11Y     HAL2     0.900000E-01   1.00800           0
      5413 MEMB     34       POPC     C312     CTL2    -0.180000       12.0110           0
      5414 MEMB     34       POPC     H12X     HAL2     0.900000E-01   1.00800           0
      5415 MEMB     34       POPC     H12Y     HAL2     0.900000E-01   1.00800           0
      5416 MEMB     34       POPC     C313     CTL2    -0.180000       12.0110           0
      5417 MEMB     34       POPC     H13X     HAL2     0.900000E-01   1.00800           0
      5418 MEMB     34       POPC     H13Y     HAL2     0.900000E-01   1.00800           0
      5419 MEMB     34       POPC     C314     CTL2    -0.180000       12.0110           0
      5420 MEMB     34       POPC     H14X     HAL2     0.900000E-01   1.00800           0
      5421 MEMB     34       POPC     H14Y     HAL2     0.900000E-01   1.00800           0
      5422 MEMB     34       POPC     C315     CTL2    -0.180000       12.0110           0
      5423 MEMB     34       POPC     H15X     HAL2     0.900000E-01   1.00800           0
      5424 MEMB     34       POPC     H15Y     HAL2     0.900000E-01   1.00800           0
      5425 MEMB     34       POPC     C316     CTL3    -0.270000       12.0110           0
      5426 MEMB     34       POPC     H16X     HAL3     0.900000E-01   1.00800           0
      5427 MEMB     34       POPC     H16Y     HAL3     0.900000E-01   1.00800           0
      5428 MEMB     34       POPC     H16Z     HAL3     0.900000E-01   1.00800           0
      5429 MEMB     35       POPC     N        NTL     -0.600000       14.0070           0
      5430 MEMB     35       POPC     C12      CTL2    -0.100000       12.0110           0
      5431 MEMB     35       POPC     H12A     HL       0.250000       1.00800           0
      5432 MEMB     35       POPC     H12B     HL       0.250000       1.00800           0
      5433 MEMB     35       POPC     C13      CTL5    -0.350000       12.0110           0
      5434 MEMB     35       POPC     H13A     HL       0.250000       1.00800           0
      5435 MEMB     35       POPC     H13B     HL       0.250000       1.00800           0
      5436 MEMB     35       POPC     H13C     HL       0.250000       1.00800           0
      5437 MEMB     35       POPC     C14      CTL5    -0.350000       12.0110           0
      5438 MEMB     35       POPC     H14A     HL       0.250000       1.00800           0
      5439 MEMB     35       POPC     H14B     HL       0.250000       1.00800           0
      5440 MEMB     35       POPC     H14C     HL       0.250000       1.00800           0
      5441 MEMB     35       POPC     C15      CTL5    -0.350000       12.0110           0
      5442 MEMB     35       POPC     H15A     HL       0.250000       1.00800           0
      5443 MEMB     35       POPC     H15B     HL       0.250000       1.00800           0
      5444 MEMB     35       POPC     H15C     HL       0.250000       1.00800           0
      5445 MEMB     35       POPC     C11      CTL2    -0.800000E-01   12.0110           0
      5446 MEMB     35       POPC     H11A     HAL2     0.900000E-01   1.00800           0
      5447 MEMB     35       POPC     H11B     HAL2     0.900000E-01   1.00800           0
      5448 MEMB     35       POPC     P        PL        1.50000       30.9740           0
      5449 MEMB     35       POPC     O13      O2L     -0.780000       15.9994           0
      5450 MEMB     35       POPC     O14      O2L     -0.780000       15.9994           0
      5451 MEMB     35       POPC     O12      OSLP    -0.570000       15.9994           0
      5452 MEMB     35       POPC     O11      OSLP    -0.570000       15.9994           0
      5453 MEMB     35       POPC     C1       CTL2    -0.800000E-01   12.0110           0
      5454 MEMB     35       POPC     HA       HAL2     0.900000E-01   1.00800           0
      5455 MEMB     35       POPC     HB       HAL2     0.900000E-01   1.00800           0
      5456 MEMB     35       POPC     C2       CTL1     0.170000       12.0110           0
      5457 MEMB     35       POPC     HS       HAL1     0.900000E-01   1.00800           0
      5458 MEMB     35       POPC     O21      OSL     -0.490000       15.9994           0
      5459 MEMB     35       POPC     C21      CL       0.900000       12.0110           0
      5460 MEMB     35       POPC     O22      OBL     -0.630000       15.9994           0
      5461 MEMB     35       POPC     C22      CTL2    -0.220000       12.0110           0
      5462 MEMB     35       POPC     H2R      HAL2     0.900000E-01   1.00800           0
      5463 MEMB     35       POPC     H2S      HAL2     0.900000E-01   1.00800           0
      5464 MEMB     35       POPC     C3       CTL2     0.800000E-01   12.0110           0
      5465 MEMB     35       POPC     HX       HAL2     0.900000E-01   1.00800           0
      5466 MEMB     35       POPC     HY       HAL2     0.900000E-01   1.00800           0
      5467 MEMB     35       POPC     O31      OSL     -0.490000       15.9994           0
      5468 MEMB     35       POPC     C31      CL       0.900000       12.0110           0
      5469 MEMB     35       POPC     O32      OBL     -0.630000       15.9994           0
      5470 MEMB     35       POPC     C32      CTL2    -0.220000       12.0110           0
      5471 MEMB     35       POPC     H2X      HAL2     0.900000E-01   1.00800           0
      5472 MEMB     35       POPC     H2Y      HAL2     0.900000E-01   1.00800           0
      5473 MEMB     35       POPC     C23      CTL2    -0.180000       12.0110           0
      5474 MEMB     35       POPC     H3R      HAL2     0.900000E-01   1.00800           0
      5475 MEMB     35       POPC     H3S      HAL2     0.900000E-01   1.00800           0
      5476 MEMB     35       POPC     C24      CTL2    -0.180000       12.0110           0
      5477 MEMB     35       POPC     H4R      HAL2     0.900000E-01   1.00800           0
      5478 MEMB     35       POPC     H4S      HAL2     0.900000E-01   1.00800           0
      5479 MEMB     35       POPC     C25      CTL2    -0.180000       12.0110           0
      5480 MEMB     35       POPC     H5R      HAL2     0.900000E-01   1.00800           0
      5481 MEMB     35       POPC     H5S      HAL2     0.900000E-01   1.00800           0
      5482 MEMB     35       POPC     C26      CTL2    -0.180000       12.0110           0
      5483 MEMB     35       POPC     H6R      HAL2     0.900000E-01   1.00800           0
      5484 MEMB     35       POPC     H6S      HAL2     0.900000E-01   1.00800           0
      5485 MEMB     35       POPC     C27      CTL2    -0.180000       12.0110           0
      5486 MEMB     35       POPC     H7R      HAL2     0.900000E-01   1.00800           0
      5487 MEMB     35       POPC     H7S      HAL2     0.900000E-01   1.00800           0
      5488 MEMB     35       POPC     C28      CTL2    -0.180000       12.0110           0
      5489 MEMB     35       POPC     H8R      HAL2     0.900000E-01   1.00800           0
      5490 MEMB     35       POPC     H8S      HAL2     0.900000E-01   1.00800           0
      5491 MEMB     35       POPC     C29      CEL1    -0.150000       12.0110           0
      5492 MEMB     35       POPC     H91      HEL1     0.150000       1.00800           0
      5493 MEMB     35       POPC     C210     CEL1    -0.150000       12.0110           0
      5494 MEMB     35       POPC     H101     HEL1     0.150000       1.00800           0
      5495 MEMB     35       POPC     C211     CTL2    -0.180000       12.0110           0
      5496 MEMB     35       POPC     H11R     HAL2     0.900000E-01   1.00800           0
      5497 MEMB     35       POPC     H11S     HAL2     0.900000E-01   1.00800           0
      5498 MEMB     35       POPC     C212     CTL2    -0.180000       12.0110           0
      5499 MEMB     35       POPC     H12R     HAL2     0.900000E-01   1.00800           0
      5500 MEMB     35       POPC     H12S     HAL2     0.900000E-01   1.00800           0
      5501 MEMB     35       POPC     C213     CTL2    -0.180000       12.0110           0
      5502 MEMB     35       POPC     H13R     HAL2     0.900000E-01   1.00800           0
      5503 MEMB     35       POPC     H13S     HAL2     0.900000E-01   1.00800           0
      5504 MEMB     35       POPC     C214     CTL2    -0.180000       12.0110           0
      5505 MEMB     35       POPC     H14R     HAL2     0.900000E-01   1.00800           0
      5506 MEMB     35       POPC     H14S     HAL2     0.900000E-01   1.00800           0
      5507 MEMB     35       POPC     C215     CTL2    -0.180000       12.0110           0
      5508 MEMB     35       POPC     H15R     HAL2     0.900000E-01   1.00800           0
      5509 MEMB     35       POPC     H15S     HAL2     0.900000E-01   1.00800           0
      5510 MEMB     35       POPC     C216     CTL2    -0.180000       12.0110           0
      5511 MEMB     35       POPC     H16R     HAL2     0.900000E-01   1.00800           0
      5512 MEMB     35       POPC     H16S     HAL2     0.900000E-01   1.00800           0
      5513 MEMB     35       POPC     C217     CTL2    -0.180000       12.0110           0
      5514 MEMB     35       POPC     H17R     HAL2     0.900000E-01   1.00800           0
      5515 MEMB     35       POPC     H17S     HAL2     0.900000E-01   1.00800           0
      5516 MEMB     35       POPC     C218     CTL3    -0.270000       12.0110           0
      5517 MEMB     35       POPC     H18R     HAL3     0.900000E-01   1.00800           0
      5518 MEMB     35       POPC     H18S     HAL3     0.900000E-01   1.00800           0
      5519 MEMB     35       POPC     H18T     HAL3     0.900000E-01   1.00800           0
      5520 MEMB     35       POPC     C33      CTL2    -0.180000       12.0110           0
      5521 MEMB     35       POPC     H3X      HAL2     0.900000E-01   1.00800           0
      5522 MEMB     35       POPC     H3Y      HAL2     0.900000E-01   1.00800           0
      5523 MEMB     35       POPC     C34      CTL2    -0.180000       12.0110           0
      5524 MEMB     35       POPC     H4X      HAL2     0.900000E-01   1.00800           0
      5525 MEMB     35       POPC     H4Y      HAL2     0.900000E-01   1.00800           0
      5526 MEMB     35       POPC     C35      CTL2    -0.180000       12.0110           0
      5527 MEMB     35       POPC     H5X      HAL2     0.900000E-01   1.00800           0
      5528 MEMB     35       POPC     H5Y      HAL2     0.900000E-01   1.00800           0
      5529 MEMB     35       POPC     C36      CTL2    -0.180000       12.0110           0
      5530 MEMB     35       POPC     H6X      HAL2     0.900000E-01   1.00800           0
      5531 MEMB     35       POPC     H6Y      HAL2     0.900000E-01   1.00800           0
      5532 MEMB     35       POPC     C37      CTL2    -0.180000       12.0110           0
      5533 MEMB     35       POPC     H7X      HAL2     0.900000E-01   1.00800           0
      5534 MEMB     35       POPC     H7Y      HAL2     0.900000E-01   1.00800           0
      5535 MEMB     35       POPC     C38      CTL2    -0.180000       12.0110           0
      5536 MEMB     35       POPC     H8X      HAL2     0.900000E-01   1.00800           0
      5537 MEMB     35       POPC     H8Y      HAL2     0.900000E-01   1.00800           0
      5538 MEMB     35       POPC     C39      CTL2    -0.180000       12.0110           0
      5539 MEMB     35       POPC     H9X      HAL2     0.900000E-01   1.00800           0
      5540 MEMB     35       POPC     H9Y      HAL2     0.900000E-01   1.00800           0
      5541 MEMB     35       POPC     C310     CTL2    -0.180000       12.0110           0
      5542 MEMB     35       POPC     H10X     HAL2     0.900000E-01   1.00800           0
      5543 MEMB     35       POPC     H10Y     HAL2     0.900000E-01   1.00800           0
      5544 MEMB     35       POPC     C311     CTL2    -0.180000       12.0110           0
      5545 MEMB     35       POPC     H11X     HAL2     0.900000E-01   1.00800           0
      5546 MEMB     35       POPC     H11Y     HAL2     0.900000E-01   1.00800           0
      5547 MEMB     35       POPC     C312     CTL2    -0.180000       12.0110           0
      5548 MEMB     35       POPC     H12X     HAL2     0.900000E-01   1.00800           0
      5549 MEMB     35       POPC     H12Y     HAL2     0.900000E-01   1.00800           0
      5550 MEMB     35       POPC     C313     CTL2    -0.180000       12.0110           0
      5551 MEMB     35       POPC     H13X     HAL2     0.900000E-01   1.00800           0
      5552 MEMB     35       POPC     H13Y     HAL2     0.900000E-01   1.00800           0
      5553 MEMB     35       POPC     C314     CTL2    -0.180000       12.0110           0
      5554 MEMB     35       POPC     H14X     HAL2     0.900000E-01   1.00800           0
      5555 MEMB     35       POPC     H14Y     HAL2     0.900000E-01   1.00800           0
      5556 MEMB     35       POPC     C315     CTL2    -0.180000       12.0110           0
      5557 MEMB     35       POPC     H15X     HAL2     0.900000E-01   1.00800           0
      5558 MEMB     35       POPC     H15Y     HAL2     0.900000E-01   1.00800           0
      5559 MEMB     35       POPC     C316     CTL3    -0.270000       12.0110           0
      5560 MEMB     35       POPC     H16X     HAL3     0.900000E-01   1.00800           0
      5561 MEMB     35       POPC     H16Y     HAL3     0.900000E-01   1.00800           0
      5562 MEMB     35       POPC     H16Z     HAL3     0.900000E-01   1.00800           0
      5563 MEMB     36       POPC     N        NTL     -0.600000       14.0070           0
      5564 MEMB     36       POPC     C12      CTL2    -0.100000       12.0110           0
      5565 MEMB     36       POPC     H12A     HL       0.250000       1.00800           0
      5566 MEMB     36       POPC     H12B     HL       0.250000       1.00800           0
      5567 MEMB     36       POPC     C13      CTL5    -0.350000       12.0110           0
      5568 MEMB     36       POPC     H13A     HL       0.250000       1.00800           0
      5569 MEMB     36       POPC     H13B     HL       0.250000       1.00800           0
      5570 MEMB     36       POPC     H13C     HL       0.250000       1.00800           0
      5571 MEMB     36       POPC     C14      CTL5    -0.350000       12.0110           0
      5572 MEMB     36       POPC     H14A     HL       0.250000       1.00800           0
      5573 MEMB     36       POPC     H14B     HL       0.250000       1.00800           0
      5574 MEMB     36       POPC     H14C     HL       0.250000       1.00800           0
      5575 MEMB     36       POPC     C15      CTL5    -0.350000       12.0110           0
      5576 MEMB     36       POPC     H15A     HL       0.250000       1.00800           0
      5577 MEMB     36       POPC     H15B     HL       0.250000       1.00800           0
      5578 MEMB     36       POPC     H15C     HL       0.250000       1.00800           0
      5579 MEMB     36       POPC     C11      CTL2    -0.800000E-01   12.0110           0
      5580 MEMB     36       POPC     H11A     HAL2     0.900000E-01   1.00800           0
      5581 MEMB     36       POPC     H11B     HAL2     0.900000E-01   1.00800           0
      5582 MEMB     36       POPC     P        PL        1.50000       30.9740           0
      5583 MEMB     36       POPC     O13      O2L     -0.780000       15.9994           0
      5584 MEMB     36       POPC     O14      O2L     -0.780000       15.9994           0
      5585 MEMB     36       POPC     O12      OSLP    -0.570000       15.9994           0
      5586 MEMB     36       POPC     O11      OSLP    -0.570000       15.9994           0
      5587 MEMB     36       POPC     C1       CTL2    -0.800000E-01   12.0110           0
      5588 MEMB     36       POPC     HA       HAL2     0.900000E-01   1.00800           0
      5589 MEMB     36       POPC     HB       HAL2     0.900000E-01   1.00800           0
      5590 MEMB     36       POPC     C2       CTL1     0.170000       12.0110           0
      5591 MEMB     36       POPC     HS       HAL1     0.900000E-01   1.00800           0
      5592 MEMB     36       POPC     O21      OSL     -0.490000       15.9994           0
      5593 MEMB     36       POPC     C21      CL       0.900000       12.0110           0
      5594 MEMB     36       POPC     O22      OBL     -0.630000       15.9994           0
      5595 MEMB     36       POPC     C22      CTL2    -0.220000       12.0110           0
      5596 MEMB     36       POPC     H2R      HAL2     0.900000E-01   1.00800           0
      5597 MEMB     36       POPC     H2S      HAL2     0.900000E-01   1.00800           0
      5598 MEMB     36       POPC     C3       CTL2     0.800000E-01   12.0110           0
      5599 MEMB     36       POPC     HX       HAL2     0.900000E-01   1.00800           0
      5600 MEMB     36       POPC     HY       HAL2     0.900000E-01   1.00800           0
      5601 MEMB     36       POPC     O31      OSL     -0.490000       15.9994           0
      5602 MEMB     36       POPC     C31      CL       0.900000       12.0110           0
      5603 MEMB     36       POPC     O32      OBL     -0.630000       15.9994           0
      5604 MEMB     36       POPC     C32      CTL2    -0.220000       12.0110           0
      5605 MEMB     36       POPC     H2X      HAL2     0.900000E-01   1.00800           0
      5606 MEMB     36       POPC     H2Y      HAL2     0.900000E-01   1.00800           0
      5607 MEMB     36       POPC     C23      CTL2    -0.180000       12.0110           0
      5608 MEMB     36       POPC     H3R      HAL2     0.900000E-01   1.00800           0
      5609 MEMB     36       POPC     H3S      HAL2     0.900000E-01   1.00800           0
      5610 MEMB     36       POPC     C24      CTL2    -0.180000       12.0110           0
      5611 MEMB     36       POPC     H4R      HAL2     0.900000E-01   1.00800           0
      5612 MEMB     36       POPC     H4S      HAL2     0.900000E-01   1.00800           0
      5613 MEMB     36       POPC     C25      CTL2    -0.180000       12.0110           0
      5614 MEMB     36       POPC     H5R      HAL2     0.900000E-01   1.00800           0
      5615 MEMB     36       POPC     H5S      HAL2     0.900000E-01   1.00800           0
      5616 MEMB     36       POPC     C26      CTL2    -0.180000       12.0110           0
      5617 MEMB     36       POPC     H6R      HAL2     0.900000E-01   1.00800           0
      5618 MEMB     36       POPC     H6S      HAL2     0.900000E-01   1.00800           0
      5619 MEMB     36       POPC     C27      CTL2    -0.180000       12.0110           0
      5620 MEMB     36       POPC     H7R      HAL2     0.900000E-01   1.00800           0
      5621 MEMB     36       POPC     H7S      HAL2     0.900000E-01   1.00800           0
      5622 MEMB     36       POPC     C28      CTL2    -0.180000       12.0110           0
      5623 MEMB     36       POPC     H8R      HAL2     0.900000E-01   1.00800           0
      5624 MEMB     36       POPC     H8S      HAL2     0.900000E-01   1.00800           0
      5625 MEMB     36       POPC     C29      CEL1    -0.150000       12.0110           0
      5626 MEMB     36       POPC     H91      HEL1     0.150000       1.00800           0
      5627 MEMB     36       POPC     C210     CEL1    -0.150000       12.0110           0
      5628 MEMB     36       POPC     H101     HEL1     0.150000       1.00800           0
      5629 MEMB     36       POPC     C211     CTL2    -0.180000       12.0110           0
      5630 MEMB     36       POPC     H11R     HAL2     0.900000E-01   1.00800           0
      5631 MEMB     36       POPC     H11S     HAL2     0.900000E-01   1.00800           0
      5632 MEMB     36       POPC     C212     CTL2    -0.180000       12.0110           0
      5633 MEMB     36       POPC     H12R     HAL2     0.900000E-01   1.00800           0
      5634 MEMB     36       POPC     H12S     HAL2     0.900000E-01   1.00800           0
      5635 MEMB     36       POPC     C213     CTL2    -0.180000       12.0110           0
      5636 MEMB     36       POPC     H13R     HAL2     0.900000E-01   1.00800           0
      5637 MEMB     36       POPC     H13S     HAL2     0.900000E-01   1.00800           0
      5638 MEMB     36       POPC     C214     CTL2    -0.180000       12.0110           0
      5639 MEMB     36       POPC     H14R     HAL2     0.900000E-01   1.00800           0
      5640 MEMB     36       POPC     H14S     HAL2     0.900000E-01   1.00800           0
      5641 MEMB     36       POPC     C215     CTL2    -0.180000       12.0110           0
      5642 MEMB     36       POPC     H15R     HAL2     0.900000E-01   1.00800           0
      5643 MEMB     36       POPC     H15S     HAL2     0.900000E-01   1.00800           0
      5644 MEMB     36       POPC     C216     CTL2    -0.180000       12.0110           0
      5645 MEMB     36       POPC     H16R     HAL2     0.900000E-01   1.00800           0
      5646 MEMB     36       POPC     H16S     HAL2     0.900000E-01   1.00800           0
      5647 MEMB     36       POPC     C217     CTL2    -0.180000       12.0110           0
      5648 MEMB     36       POPC     H17R     HAL2     0.900000E-01   1.00800           0
      5649 MEMB     36       POPC     H17S     HAL2     0.900000E-01   1.00800           0
      5650 MEMB     36       POPC     C218     CTL3    -0.270000       12.0110           0
      5651 MEMB     36       POPC     H18R     HAL3     0.900000E-01   1.00800           0
      5652 MEMB     36       POPC     H18S     HAL3     0.900000E-01   1.00800           0
      5653 MEMB     36       POPC     H18T     HAL3     0.900000E-01   1.00800           0
      5654 MEMB     36       POPC     C33      CTL2    -0.180000       12.0110           0
      5655 MEMB     36       POPC     H3X      HAL2     0.900000E-01   1.00800           0
      5656 MEMB     36       POPC     H3Y      HAL2     0.900000E-01   1.00800           0
      5657 MEMB     36       POPC     C34      CTL2    -0.180000       12.0110           0
      5658 MEMB     36       POPC     H4X      HAL2     0.900000E-01   1.00800           0
      5659 MEMB     36       POPC     H4Y      HAL2     0.900000E-01   1.00800           0
      5660 MEMB     36       POPC     C35      CTL2    -0.180000       12.0110           0
      5661 MEMB     36       POPC     H5X      HAL2     0.900000E-01   1.00800           0
      5662 MEMB     36       POPC     H5Y      HAL2     0.900000E-01   1.00800           0
      5663 MEMB     36       POPC     C36      CTL2    -0.180000       12.0110           0
      5664 MEMB     36       POPC     H6X      HAL2     0.900000E-01   1.00800           0
      5665 MEMB     36       POPC     H6Y      HAL2     0.900000E-01   1.00800           0
      5666 MEMB     36       POPC     C37      CTL2    -0.180000       12.0110           0
      5667 MEMB     36       POPC     H7X      HAL2     0.900000E-01   1.00800           0
      5668 MEMB     36       POPC     H7Y      HAL2     0.900000E-01   1.00800           0
      5669 MEMB     36       POPC     C38      CTL2    -0.180000       12.0110           0
      5670 MEMB     36       POPC     H8X      HAL2     0.900000E-01   1.00800           0
      5671 MEMB     36       POPC     H8Y      HAL2     0.900000E-01   1.00800           0
      5672 MEMB     36       POPC     C39      CTL2    -0.180000       12.0110           0
      5673 MEMB     36       POPC     H9X      HAL2     0.900000E-01   1.00800           0
      5674 MEMB     36       POPC     H9Y      HAL2     0.900000E-01   1.00800           0
      5675 MEMB     36       POPC     C310     CTL2    -0.180000       12.0110           0
      5676 MEMB     36       POPC     H10X     HAL2     0.900000E-01   1.00800           0
      5677 MEMB     36       POPC     H10Y     HAL2     0.900000E-01   1.00800           0
      5678 MEMB     36       POPC     C311     CTL2    -0.180000       12.0110           0
      5679 MEMB     36       POPC     H11X     HAL2     0.900000E-01   1.00800           0
      5680 MEMB     36       POPC     H11Y     HAL2     0.900000E-01   1.00800           0
      5681 MEMB     36       POPC     C312     CTL2    -0.180000       12.0110           0
      5682 MEMB     36       POPC     H12X     HAL2     0.900000E-01   1.00800           0
      5683 MEMB     36       POPC     H12Y     HAL2     0.900000E-01   1.00800           0
      5684 MEMB     36       POPC     C313     CTL2    -0.180000       12.0110           0
      5685 MEMB     36       POPC     H13X     HAL2     0.900000E-01   1.00800           0
      5686 MEMB     36       POPC     H13Y     HAL2     0.900000E-01   1.00800           0
      5687 MEMB     36       POPC     C314     CTL2    -0.180000       12.0110           0
      5688 MEMB     36       POPC     H14X     HAL2     0.900000E-01   1.00800           0
      5689 MEMB     36       POPC     H14Y     HAL2     0.900000E-01   1.00800           0
      5690 MEMB     36       POPC     C315     CTL2    -0.180000       12.0110           0
      5691 MEMB     36       POPC     H15X     HAL2     0.900000E-01   1.00800           0
      5692 MEMB     36       POPC     H15Y     HAL2     0.900000E-01   1.00800           0
      5693 MEMB     36       POPC     C316     CTL3    -0.270000       12.0110           0
      5694 MEMB     36       POPC     H16X     HAL3     0.900000E-01   1.00800           0
      5695 MEMB     36       POPC     H16Y     HAL3     0.900000E-01   1.00800           0
      5696 MEMB     36       POPC     H16Z     HAL3     0.900000E-01   1.00800           0
      5697 MEMB     37       POPC     N        NTL     -0.600000       14.0070           0
      5698 MEMB     37       POPC     C12      CTL2    -0.100000       12.0110           0
      5699 MEMB     37       POPC     H12A     HL       0.250000       1.00800           0
      5700 MEMB     37       POPC     H12B     HL       0.250000       1.00800           0
      5701 MEMB     37       POPC     C13      CTL5    -0.350000       12.0110           0
      5702 MEMB     37       POPC     H13A     HL       0.250000       1.00800           0
      5703 MEMB     37       POPC     H13B     HL       0.250000       1.00800           0
      5704 MEMB     37       POPC     H13C     HL       0.250000       1.00800           0
      5705 MEMB     37       POPC     C14      CTL5    -0.350000       12.0110           0
      5706 MEMB     37       POPC     H14A     HL       0.250000       1.00800           0
      5707 MEMB     37       POPC     H14B     HL       0.250000       1.00800           0
      5708 MEMB     37       POPC     H14C     HL       0.250000       1.00800           0
      5709 MEMB     37       POPC     C15      CTL5    -0.350000       12.0110           0
      5710 MEMB     37       POPC     H15A     HL       0.250000       1.00800           0
      5711 MEMB     37       POPC     H15B     HL       0.250000       1.00800           0
      5712 MEMB     37       POPC     H15C     HL       0.250000       1.00800           0
      5713 MEMB     37       POPC     C11      CTL2    -0.800000E-01   12.0110           0
      5714 MEMB     37       POPC     H11A     HAL2     0.900000E-01   1.00800           0
      5715 MEMB     37       POPC     H11B     HAL2     0.900000E-01   1.00800           0
      5716 MEMB     37       POPC     P        PL        1.50000       30.9740           0
      5717 MEMB     37       POPC     O13      O2L     -0.780000       15.9994           0
      5718 MEMB     37       POPC     O14      O2L     -0.780000       15.9994           0
      5719 MEMB     37       POPC     O12      OSLP    -0.570000       15.9994           0
      5720 MEMB     37       POPC     O11      OSLP    -0.570000       15.9994           0
      5721 MEMB     37       POPC     C1       CTL2    -0.800000E-01   12.0110           0
      5722 MEMB     37       POPC     HA       HAL2     0.900000E-01   1.00800           0
      5723 MEMB     37       POPC     HB       HAL2     0.900000E-01   1.00800           0
      5724 MEMB     37       POPC     C2       CTL1     0.170000       12.0110           0
      5725 MEMB     37       POPC     HS       HAL1     0.900000E-01   1.00800           0
      5726 MEMB     37       POPC     O21      OSL     -0.490000       15.9994           0
      5727 MEMB     37       POPC     C21      CL       0.900000       12.0110           0
      5728 MEMB     37       POPC     O22      OBL     -0.630000       15.9994           0
      5729 MEMB     37       POPC     C22      CTL2    -0.220000       12.0110           0
      5730 MEMB     37       POPC     H2R      HAL2     0.900000E-01   1.00800           0
      5731 MEMB     37       POPC     H2S      HAL2     0.900000E-01   1.00800           0
      5732 MEMB     37       POPC     C3       CTL2     0.800000E-01   12.0110           0
      5733 MEMB     37       POPC     HX       HAL2     0.900000E-01   1.00800           0
      5734 MEMB     37       POPC     HY       HAL2     0.900000E-01   1.00800           0
      5735 MEMB     37       POPC     O31      OSL     -0.490000       15.9994           0
      5736 MEMB     37       POPC     C31      CL       0.900000       12.0110           0
      5737 MEMB     37       POPC     O32      OBL     -0.630000       15.9994           0
      5738 MEMB     37       POPC     C32      CTL2    -0.220000       12.0110           0
      5739 MEMB     37       POPC     H2X      HAL2     0.900000E-01   1.00800           0
      5740 MEMB     37       POPC     H2Y      HAL2     0.900000E-01   1.00800           0
      5741 MEMB     37       POPC     C23      CTL2    -0.180000       12.0110           0
      5742 MEMB     37       POPC     H3R      HAL2     0.900000E-01   1.00800           0
      5743 MEMB     37       POPC     H3S      HAL2     0.900000E-01   1.00800           0
      5744 MEMB     37       POPC     C24      CTL2    -0.180000       12.0110           0
      5745 MEMB     37       POPC     H4R      HAL2     0.900000E-01   1.00800           0
      5746 MEMB     37       POPC     H4S      HAL2     0.900000E-01   1.00800           0
      5747 MEMB     37       POPC     C25      CTL2    -0.180000       12.0110           0
      5748 MEMB     37       POPC     H5R      HAL2     0.900000E-01   1.00800           0
      5749 MEMB     37       POPC     H5S      HAL2     0.900000E-01   1.00800           0
      5750 MEMB     37       POPC     C26      CTL2    -0.180000       12.0110           0
      5751 MEMB     37       POPC     H6R      HAL2     0.900000E-01   1.00800           0
      5752 MEMB     37       POPC     H6S      HAL2     0.900000E-01   1.00800           0
      5753 MEMB     37       POPC     C27      CTL2    -0.180000       12.0110           0
      5754 MEMB     37       POPC     H7R      HAL2     0.900000E-01   1.00800           0
      5755 MEMB     37       POPC     H7S      HAL2     0.900000E-01   1.00800           0
      5756 MEMB     37       POPC     C28      CTL2    -0.180000       12.0110           0
      5757 MEMB     37       POPC     H8R      HAL2     0.900000E-01   1.00800           0
      5758 MEMB     37       POPC     H8S      HAL2     0.900000E-01   1.00800           0
      5759 MEMB     37       POPC     C29      CEL1    -0.150000       12.0110           0
      5760 MEMB     37       POPC     H91      HEL1     0.150000       1.00800           0
      5761 MEMB     37       POPC     C210     CEL1    -0.150000       12.0110           0
      5762 MEMB     37       POPC     H101     HEL1     0.150000       1.00800           0
      5763 MEMB     37       POPC     C211     CTL2    -0.180000       12.0110           0
      5764 MEMB     37       POPC     H11R     HAL2     0.900000E-01   1.00800           0
      5765 MEMB     37       POPC     H11S     HAL2     0.900000E-01   1.00800           0
      5766 MEMB     37       POPC     C212     CTL2    -0.180000       12.0110           0
      5767 MEMB     37       POPC     H12R     HAL2     0.900000E-01   1.00800           0
      5768 MEMB     37       POPC     H12S     HAL2     0.900000E-01   1.00800           0
      5769 MEMB     37       POPC     C213     CTL2    -0.180000       12.0110           0
      5770 MEMB     37       POPC     H13R     HAL2     0.900000E-01   1.00800           0
      5771 MEMB     37       POPC     H13S     HAL2     0.900000E-01   1.00800           0
      5772 MEMB     37       POPC     C214     CTL2    -0.180000       12.0110           0
      5773 MEMB     37       POPC     H14R     HAL2     0.900000E-01   1.00800           0
      5774 MEMB     37       POPC     H14S     HAL2     0.900000E-01   1.00800           0
      5775 MEMB     37       POPC     C215     CTL2    -0.180000       12.0110           0
      5776 MEMB     37       POPC     H15R     HAL2     0.900000E-01   1.00800           0
      5777 MEMB     37       POPC     H15S     HAL2     0.900000E-01   1.00800           0
      5778 MEMB     37       POPC     C216     CTL2    -0.180000       12.0110           0
      5779 MEMB     37       POPC     H16R     HAL2     0.900000E-01   1.00800           0
      5780 MEMB     37       POPC     H16S     HAL2     0.900000E-01   1.00800           0
      5781 MEMB     37       POPC     C217     CTL2    -0.180000       12.0110           0
      5782 MEMB     37       POPC     H17R     HAL2     0.900000E-01   1.00800           0
      5783 MEMB     37       POPC     H17S     HAL2     0.900000E-01   1.00800           0
      5784 MEMB     37       POPC     C218     CTL3    -0.270000       12.0110           0
      5785 MEMB     37       POPC     H18R     HAL3     0.900000E-01   1.00800           0
      5786 MEMB     37       POPC     H18S     HAL3     0.900000E-01   1.00800           0
      5787 MEMB     37       POPC     H18T     HAL3     0.900000E-01   1.00800           0
      5788 MEMB     37       POPC     C33      CTL2    -0.180000       12.0110           0
      5789 MEMB     37       POPC     H3X      HAL2     0.900000E-01   1.00800           0
      5790 MEMB     37       POPC     H3Y      HAL2     0.900000E-01   1.00800           0
      5791 MEMB     37       POPC     C34      CTL2    -0.180000       12.0110           0
      5792 MEMB     37       POPC     H4X      HAL2     0.900000E-01   1.00800           0
      5793 MEMB     37       POPC     H4Y      HAL2     0.900000E-01   1.00800           0
      5794 MEMB     37       POPC     C35      CTL2    -0.180000       12.0110           0
      5795 MEMB     37       POPC     H5X      HAL2     0.900000E-01   1.00800           0
      5796 MEMB     37       POPC     H5Y      HAL2     0.900000E-01   1.00800           0
      5797 MEMB     37       POPC     C36      CTL2    -0.180000       12.0110           0
      5798 MEMB     37       POPC     H6X      HAL2     0.900000E-01   1.00800           0
      5799 MEMB     37       POPC     H6Y      HAL2     0.900000E-01   1.00800           0
      5800 MEMB     37       POPC     C37      CTL2    -0.180000       12.0110           0
      5801 MEMB     37       POPC     H7X      HAL2     0.900000E-01   1.00800           0
      5802 MEMB     37       POPC     H7Y      HAL2     0.900000E-01   1.00800           0
      5803 MEMB     37       POPC     C38      CTL2    -0.180000       12.0110           0
      5804 MEMB     37       POPC     H8X      HAL2     0.900000E-01   1.00800           0
      5805 MEMB     37       POPC     H8Y      HAL2     0.900000E-01   1.00800           0
      5806 MEMB     37       POPC     C39      CTL2    -0.180000       12.0110           0
      5807 MEMB     37       POPC     H9X      HAL2     0.900000E-01   1.00800           0
      5808 MEMB     37       POPC     H9Y      HAL2     0.900000E-01   1.00800           0
      5809 MEMB     37       POPC     C310     CTL2    -0.180000       12.0110           0
      5810 MEMB     37       POPC     H10X     HAL2     0.900000E-01   1.00800           0
      5811 MEMB     37       POPC     H10Y     HAL2     0.900000E-01   1.00800           0
      5812 MEMB     37       POPC     C311     CTL2    -0.180000       12.0110           0
      5813 MEMB     37       POPC     H11X     HAL2     0.900000E-01   1.00800           0
      5814 MEMB     37       POPC     H11Y     HAL2     0.900000E-01   1.00800           0
      5815 MEMB     37       POPC     C312     CTL2    -0.180000       12.0110           0
      5816 MEMB     37       POPC     H12X     HAL2     0.900000E-01   1.00800           0
      5817 MEMB     37       POPC     H12Y     HAL2     0.900000E-01   1.00800           0
      5818 MEMB     37       POPC     C313     CTL2    -0.180000       12.0110           0
      5819 MEMB     37       POPC     H13X     HAL2     0.900000E-01   1.00800           0
      5820 MEMB     37       POPC     H13Y     HAL2     0.900000E-01   1.00800           0
      5821 MEMB     37       POPC     C314     CTL2    -0.180000       12.0110           0
      5822 MEMB     37       POPC     H14X     HAL2     0.900000E-01   1.00800           0
      5823 MEMB     37       POPC     H14Y     HAL2     0.900000E-01   1.00800           0
      5824 MEMB     37       POPC     C315     CTL2    -0.180000       12.0110           0
      5825 MEMB     37       POPC     H15X     HAL2     0.900000E-01   1.00800           0
      5826 MEMB     37       POPC     H15Y     HAL2     0.900000E-01   1.00800           0
      5827 MEMB     37       POPC     C316     CTL3    -0.270000       12.0110           0
      5828 MEMB     37       POPC     H16X     HAL3     0.900000E-01   1.00800           0
      5829 MEMB     37       POPC     H16Y     HAL3     0.900000E-01   1.00800           0
      5830 MEMB     37       POPC     H16Z     HAL3     0.900000E-01   1.00800           0
      5831 MEMB     38       POPC     N        NTL     -0.600000       14.0070           0
      5832 MEMB     38       POPC     C12      CTL2    -0.100000       12.0110           0
      5833 MEMB     38       POPC     H12A     HL       0.250000       1.00800           0
      5834 MEMB     38       POPC     H12B     HL       0.250000       1.00800           0
      5835 MEMB     38       POPC     C13      CTL5    -0.350000       12.0110           0
      5836 MEMB     38       POPC     H13A     HL       0.250000       1.00800           0
      5837 MEMB     38       POPC     H13B     HL       0.250000       1.00800           0
      5838 MEMB     38       POPC     H13C     HL       0.250000       1.00800           0
      5839 MEMB     38       POPC     C14      CTL5    -0.350000       12.0110           0
      5840 MEMB     38       POPC     H14A     HL       0.250000       1.00800           0
      5841 MEMB     38       POPC     H14B     HL       0.250000       1.00800           0
      5842 MEMB     38       POPC     H14C     HL       0.250000       1.00800           0
      5843 MEMB     38       POPC     C15      CTL5    -0.350000       12.0110           0
      5844 MEMB     38       POPC     H15A     HL       0.250000       1.00800           0
      5845 MEMB     38       POPC     H15B     HL       0.250000       1.00800           0
      5846 MEMB     38       POPC     H15C     HL       0.250000       1.00800           0
      5847 MEMB     38       POPC     C11      CTL2    -0.800000E-01   12.0110           0
      5848 MEMB     38       POPC     H11A     HAL2     0.900000E-01   1.00800           0
      5849 MEMB     38       POPC     H11B     HAL2     0.900000E-01   1.00800           0
      5850 MEMB     38       POPC     P        PL        1.50000       30.9740           0
      5851 MEMB     38       POPC     O13      O2L     -0.780000       15.9994           0
      5852 MEMB     38       POPC     O14      O2L     -0.780000       15.9994           0
      5853 MEMB     38       POPC     O12      OSLP    -0.570000       15.9994           0
      5854 MEMB     38       POPC     O11      OSLP    -0.570000       15.9994           0
      5855 MEMB     38       POPC     C1       CTL2    -0.800000E-01   12.0110           0
      5856 MEMB     38       POPC     HA       HAL2     0.900000E-01   1.00800           0
      5857 MEMB     38       POPC     HB       HAL2     0.900000E-01   1.00800           0
      5858 MEMB     38       POPC     C2       CTL1     0.170000       12.0110           0
      5859 MEMB     38       POPC     HS       HAL1     0.900000E-01   1.00800           0
      5860 MEMB     38       POPC     O21      OSL     -0.490000       15.9994           0
      5861 MEMB     38       POPC     C21      CL       0.900000       12.0110           0
      5862 MEMB     38       POPC     O22      OBL     -0.630000       15.9994           0
      5863 MEMB     38       POPC     C22      CTL2    -0.220000       12.0110           0
      5864 MEMB     38       POPC     H2R      HAL2     0.900000E-01   1.00800           0
      5865 MEMB     38       POPC     H2S      HAL2     0.900000E-01   1.00800           0
      5866 MEMB     38       POPC     C3       CTL2     0.800000E-01   12.0110           0
      5867 MEMB     38       POPC     HX       HAL2     0.900000E-01   1.00800           0
      5868 MEMB     38       POPC     HY       HAL2     0.900000E-01   1.00800           0
      5869 MEMB     38       POPC     O31      OSL     -0.490000       15.9994           0
      5870 MEMB     38       POPC     C31      CL       0.900000       12.0110           0
      5871 MEMB     38       POPC     O32      OBL     -0.630000       15.9994           0
      5872 MEMB     38       POPC     C32      CTL2    -0.220000       12.0110           0
      5873 MEMB     38       POPC     H2X      HAL2     0.900000E-01   1.00800           0
      5874 MEMB     38       POPC     H2Y      HAL2     0.900000E-01   1.00800           0
      5875 MEMB     38       POPC     C23      CTL2    -0.180000       12.0110           0
      5876 MEMB     38       POPC     H3R      HAL2     0.900000E-01   1.00800           0
      5877 MEMB     38       POPC     H3S      HAL2     0.900000E-01   1.00800           0
      5878 MEMB     38       POPC     C24      CTL2    -0.180000       12.0110           0
      5879 MEMB     38       POPC     H4R      HAL2     0.900000E-01   1.00800           0
      5880 MEMB     38       POPC     H4S      HAL2     0.900000E-01   1.00800           0
      5881 MEMB     38       POPC     C25      CTL2    -0.180000       12.0110           0
      5882 MEMB     38       POPC     H5R      HAL2     0.900000E-01   1.00800           0
      5883 MEMB     38       POPC     H5S      HAL2     0.900000E-01   1.00800           0
      5884 MEMB     38       POPC     C26      CTL2    -0.180000       12.0110           0
      5885 MEMB     38       POPC     H6R      HAL2     0.900000E-01   1.00800           0
      5886 MEMB     38       POPC     H6S      HAL2     0.900000E-01   1.00800           0
      5887 MEMB     38       POPC     C27      CTL2    -0.180000       12.0110           0
      5888 MEMB     38       POPC     H7R      HAL2     0.900000E-01   1.00800           0
      5889 MEMB     38       POPC     H7S      HAL2     0.900000E-01   1.00800           0
      5890 MEMB     38       POPC     C28      CTL2    -0.180000       12.0110           0
      5891 MEMB     38       POPC     H8R      HAL2     0.900000E-01   1.00800           0
      5892 MEMB     38       POPC     H8S      HAL2     0.900000E-01   1.00800           0
      5893 MEMB     38       POPC     C29      CEL1    -0.150000       12.0110           0
      5894 MEMB     38       POPC     H91      HEL1     0.150000       1.00800           0
      5895 MEMB     38       POPC     C210     CEL1    -0.150000       12.0110           0
      5896 MEMB     38       POPC     H101     HEL1     0.150000       1.00800           0
      5897 MEMB     38       POPC     C211     CTL2    -0.180000       12.0110           0
      5898 MEMB     38       POPC     H11R     HAL2     0.900000E-01   1.00800           0
      5899 MEMB     38       POPC     H11S     HAL2     0.900000E-01   1.00800           0
      5900 MEMB     38       POPC     C212     CTL2    -0.180000       12.0110           0
      5901 MEMB     38       POPC     H12R     HAL2     0.900000E-01   1.00800           0
      5902 MEMB     38       POPC     H12S     HAL2     0.900000E-01   1.00800           0
      5903 MEMB     38       POPC     C213     CTL2    -0.180000       12.0110           0
      5904 MEMB     38       POPC     H13R     HAL2     0.900000E-01   1.00800           0
      5905 MEMB     38       POPC     H13S     HAL2     0.900000E-01   1.00800           0
      5906 MEMB     38       POPC     C214     CTL2    -0.180000       12.0110           0
      5907 MEMB     38       POPC     H14R     HAL2     0.900000E-01   1.00800           0
      5908 MEMB     38       POPC     H14S     HAL2     0.900000E-01   1.00800           0
      5909 MEMB     38       POPC     C215     CTL2    -0.180000       12.0110           0
      5910 MEMB     38       POPC     H15R     HAL2     0.900000E-01   1.00800           0
      5911 MEMB     38       POPC     H15S     HAL2     0.900000E-01   1.00800           0
      5912 MEMB     38       POPC     C216     CTL2    -0.180000       12.0110           0
      5913 MEMB     38       POPC     H16R     HAL2     0.900000E-01   1.00800           0
      5914 MEMB     38       POPC     H16S     HAL2     0.900000E-01   1.00800           0
      5915 MEMB     38       POPC     C217     CTL2    -0.180000       12.0110           0
      5916 MEMB     38       POPC     H17R     HAL2     0.900000E-01   1.00800           0
      5917 MEMB     38       POPC     H17S     HAL2     0.900000E-01   1.00800           0
      5918 MEMB     38       POPC     C218     CTL3    -0.270000       12.0110           0
      5919 MEMB     38       POPC     H18R     HAL3     0.900000E-01   1.00800           0
      5920 MEMB     38       POPC     H18S     HAL3     0.900000E-01   1.00800           0
      5921 MEMB     38       POPC     H18T     HAL3     0.900000E-01   1.00800           0
      5922 MEMB     38       POPC     C33      CTL2    -0.180000       12.0110           0
      5923 MEMB     38       POPC     H3X      HAL2     0.900000E-01   1.00800           0
      5924 MEMB     38       POPC     H3Y      HAL2     0.900000E-01   1.00800           0
      5925 MEMB     38       POPC     C34      CTL2    -0.180000       12.0110           0
      5926 MEMB     38       POPC     H4X      HAL2     0.900000E-01   1.00800           0
      5927 MEMB     38       POPC     H4Y      HAL2     0.900000E-01   1.00800           0
      5928 MEMB     38       POPC     C35      CTL2    -0.180000       12.0110           0
      5929 MEMB     38       POPC     H5X      HAL2     0.900000E-01   1.00800           0
      5930 MEMB     38       POPC     H5Y      HAL2     0.900000E-01   1.00800           0
      5931 MEMB     38       POPC     C36      CTL2    -0.180000       12.0110           0
      5932 MEMB     38       POPC     H6X      HAL2     0.900000E-01   1.00800           0
      5933 MEMB     38       POPC     H6Y      HAL2     0.900000E-01   1.00800           0
      5934 MEMB     38       POPC     C37      CTL2    -0.180000       12.0110           0
      5935 MEMB     38       POPC     H7X      HAL2     0.900000E-01   1.00800           0
      5936 MEMB     38       POPC     H7Y      HAL2     0.900000E-01   1.00800           0
      5937 MEMB     38       POPC     C38      CTL2    -0.180000       12.0110           0
      5938 MEMB     38       POPC     H8X      HAL2     0.900000E-01   1.00800           0
      5939 MEMB     38       POPC     H8Y      HAL2     0.900000E-01   1.00800           0
      5940 MEMB     38       POPC     C39      CTL2    -0.180000       12.0110           0
      5941 MEMB     38       POPC     H9X      HAL2     0.900000E-01   1.00800           0
      5942 MEMB     38       POPC     H9Y      HAL2     0.900000E-01   1.00800           0
      5943 MEMB     38       POPC     C310     CTL2    -0.180000       12.0110           0
      5944 MEMB     38       POPC     H10X     HAL2     0.900000E-01   1.00800           0
      5945 MEMB     38       POPC     H10Y     HAL2     0.900000E-01   1.00800           0
      5946 MEMB     38       POPC     C311     CTL2    -0.180000       12.0110           0
      5947 MEMB     38       POPC     H11X     HAL2     0.900000E-01   1.00800           0
      5948 MEMB     38       POPC     H11Y     HAL2     0.900000E-01   1.00800           0
      5949 MEMB     38       POPC     C312     CTL2    -0.180000       12.0110           0
      5950 MEMB     38       POPC     H12X     HAL2     0.900000E-01   1.00800           0
      5951 MEMB     38       POPC     H12Y     HAL2     0.900000E-01   1.00800           0
      5952 MEMB     38       POPC     C313     CTL2    -0.180000       12.0110           0
      5953 MEMB     38       POPC     H13X     HAL2     0.900000E-01   1.00800           0
      5954 MEMB     38       POPC     H13Y     HAL2     0.900000E-01   1.00800           0
      5955 MEMB     38       POPC     C314     CTL2    -0.180000       12.0110           0
      5956 MEMB     38       POPC     H14X     HAL2     0.900000E-01   1.00800           0
      5957 MEMB     38       POPC     H14Y     HAL2     0.900000E-01   1.00800           0
      5958 MEMB     38       POPC     C315     CTL2    -0.180000       12.0110           0
      5959 MEMB     38       POPC     H15X     HAL2     0.900000E-01   1.00800           0
      5960 MEMB     38       POPC     H15Y     HAL2     0.900000E-01   1.00800           0
      5961 MEMB     38       POPC     C316     CTL3    -0.270000       12.0110           0
      5962 MEMB     38       POPC     H16X     HAL3     0.900000E-01   1.00800           0
      5963 MEMB     38       POPC     H16Y     HAL3     0.900000E-01   1.00800           0
      5964 MEMB     38       POPC     H16Z     HAL3     0.900000E-01   1.00800           0
      5965 MEMB     39       POPC     N        NTL     -0.600000       14.0070           0
      5966 MEMB     39       POPC     C12      CTL2    -0.100000       12.0110           0
      5967 MEMB     39       POPC     H12A     HL       0.250000       1.00800           0
      5968 MEMB     39       POPC     H12B     HL       0.250000       1.00800           0
      5969 MEMB     39       POPC     C13      CTL5    -0.350000       12.0110           0
      5970 MEMB     39       POPC     H13A     HL       0.250000       1.00800           0
      5971 MEMB     39       POPC     H13B     HL       0.250000       1.00800           0
      5972 MEMB     39       POPC     H13C     HL       0.250000       1.00800           0
      5973 MEMB     39       POPC     C14      CTL5    -0.350000       12.0110           0
      5974 MEMB     39       POPC     H14A     HL       0.250000       1.00800           0
      5975 MEMB     39       POPC     H14B     HL       0.250000       1.00800           0
      5976 MEMB     39       POPC     H14C     HL       0.250000       1.00800           0
      5977 MEMB     39       POPC     C15      CTL5    -0.350000       12.0110           0
      5978 MEMB     39       POPC     H15A     HL       0.250000       1.00800           0
      5979 MEMB     39       POPC     H15B     HL       0.250000       1.00800           0
      5980 MEMB     39       POPC     H15C     HL       0.250000       1.00800           0
      5981 MEMB     39       POPC     C11      CTL2    -0.800000E-01   12.0110           0
      5982 MEMB     39       POPC     H11A     HAL2     0.900000E-01   1.00800           0
      5983 MEMB     39       POPC     H11B     HAL2     0.900000E-01   1.00800           0
      5984 MEMB     39       POPC     P        PL        1.50000       30.9740           0
      5985 MEMB     39       POPC     O13      O2L     -0.780000       15.9994           0
      5986 MEMB     39       POPC     O14      O2L     -0.780000       15.9994           0
      5987 MEMB     39       POPC     O12      OSLP    -0.570000       15.9994           0
      5988 MEMB     39       POPC     O11      OSLP    -0.570000       15.9994           0
      5989 MEMB     39       POPC     C1       CTL2    -0.800000E-01   12.0110           0
      5990 MEMB     39       POPC     HA       HAL2     0.900000E-01   1.00800           0
      5991 MEMB     39       POPC     HB       HAL2     0.900000E-01   1.00800           0
      5992 MEMB     39       POPC     C2       CTL1     0.170000       12.0110           0
      5993 MEMB     39       POPC     HS       HAL1     0.900000E-01   1.00800           0
      5994 MEMB     39       POPC     O21      OSL     -0.490000       15.9994           0
      5995 MEMB     39       POPC     C21      CL       0.900000       12.0110           0
      5996 MEMB     39       POPC     O22      OBL     -0.630000       15.9994           0
      5997 MEMB     39       POPC     C22      CTL2    -0.220000       12.0110           0
      5998 MEMB     39       POPC     H2R      HAL2     0.900000E-01   1.00800           0
      5999 MEMB     39       POPC     H2S      HAL2     0.900000E-01   1.00800           0
      6000 MEMB     39       POPC     C3       CTL2     0.800000E-01   12.0110           0
      6001 MEMB     39       POPC     HX       HAL2     0.900000E-01   1.00800           0
      6002 MEMB     39       POPC     HY       HAL2     0.900000E-01   1.00800           0
      6003 MEMB     39       POPC     O31      OSL     -0.490000       15.9994           0
      6004 MEMB     39       POPC     C31      CL       0.900000       12.0110           0
      6005 MEMB     39       POPC     O32      OBL     -0.630000       15.9994           0
      6006 MEMB     39       POPC     C32      CTL2    -0.220000       12.0110           0
      6007 MEMB     39       POPC     H2X      HAL2     0.900000E-01   1.00800           0
      6008 MEMB     39       POPC     H2Y      HAL2     0.900000E-01   1.00800           0
      6009 MEMB     39       POPC     C23      CTL2    -0.180000       12.0110           0
      6010 MEMB     39       POPC     H3R      HAL2     0.900000E-01   1.00800           0
      6011 MEMB     39       POPC     H3S      HAL2     0.900000E-01   1.00800           0
      6012 MEMB     39       POPC     C24      CTL2    -0.180000       12.0110           0
      6013 MEMB     39       POPC     H4R      HAL2     0.900000E-01   1.00800           0
      6014 MEMB     39       POPC     H4S      HAL2     0.900000E-01   1.00800           0
      6015 MEMB     39       POPC     C25      CTL2    -0.180000       12.0110           0
      6016 MEMB     39       POPC     H5R      HAL2     0.900000E-01   1.00800           0
      6017 MEMB     39       POPC     H5S      HAL2     0.900000E-01   1.00800           0
      6018 MEMB     39       POPC     C26      CTL2    -0.180000       12.0110           0
      6019 MEMB     39       POPC     H6R      HAL2     0.900000E-01   1.00800           0
      6020 MEMB     39       POPC     H6S      HAL2     0.900000E-01   1.00800           0
      6021 MEMB     39       POPC     C27      CTL2    -0.180000       12.0110           0
      6022 MEMB     39       POPC     H7R      HAL2     0.900000E-01   1.00800           0
      6023 MEMB     39       POPC     H7S      HAL2     0.900000E-01   1.00800           0
      6024 MEMB     39       POPC     C28      CTL2    -0.180000       12.0110           0
      6025 MEMB     39       POPC     H8R      HAL2     0.900000E-01   1.00800           0
      6026 MEMB     39       POPC     H8S      HAL2     0.900000E-01   1.00800           0
      6027 MEMB     39       POPC     C29      CEL1    -0.150000       12.0110           0
      6028 MEMB     39       POPC     H91      HEL1     0.150000       1.00800           0
      6029 MEMB     39       POPC     C210     CEL1    -0.150000       12.0110           0
      6030 MEMB     39       POPC     H101     HEL1     0.150000       1.00800           0
      6031 MEMB     39       POPC     C211     CTL2    -0.180000       12.0110           0
      6032 MEMB     39       POPC     H11R     HAL2     0.900000E-01   1.00800           0
      6033 MEMB     39       POPC     H11S     HAL2     0.900000E-01   1.00800           0
      6034 MEMB     39       POPC     C212     CTL2    -0.180000       12.0110           0
      6035 MEMB     39       POPC     H12R     HAL2     0.900000E-01   1.00800           0
      6036 MEMB     39       POPC     H12S     HAL2     0.900000E-01   1.00800           0
      6037 MEMB     39       POPC     C213     CTL2    -0.180000       12.0110           0
      6038 MEMB     39       POPC     H13R     HAL2     0.900000E-01   1.00800           0
      6039 MEMB     39       POPC     H13S     HAL2     0.900000E-01   1.00800           0
      6040 MEMB     39       POPC     C214     CTL2    -0.180000       12.0110           0
      6041 MEMB     39       POPC     H14R     HAL2     0.900000E-01   1.00800           0
      6042 MEMB     39       POPC     H14S     HAL2     0.900000E-01   1.00800           0
      6043 MEMB     39       POPC     C215     CTL2    -0.180000       12.0110           0
      6044 MEMB     39       POPC     H15R     HAL2     0.900000E-01   1.00800           0
      6045 MEMB     39       POPC     H15S     HAL2     0.900000E-01   1.00800           0
      6046 MEMB     39       POPC     C216     CTL2    -0.180000       12.0110           0
      6047 MEMB     39       POPC     H16R     HAL2     0.900000E-01   1.00800           0
      6048 MEMB     39       POPC     H16S     HAL2     0.900000E-01   1.00800           0
      6049 MEMB     39       POPC     C217     CTL2    -0.180000       12.0110           0
      6050 MEMB     39       POPC     H17R     HAL2     0.900000E-01   1.00800           0
      6051 MEMB     39       POPC     H17S     HAL2     0.900000E-01   1.00800           0
      6052 MEMB     39       POPC     C218     CTL3    -0.270000       12.0110           0
      6053 MEMB     39       POPC     H18R     HAL3     0.900000E-01   1.00800           0
      6054 MEMB     39       POPC     H18S     HAL3     0.900000E-01   1.00800           0
      6055 MEMB     39       POPC     H18T     HAL3     0.900000E-01   1.00800           0
      6056 MEMB     39       POPC     C33      CTL2    -0.180000       12.0110           0
      6057 MEMB     39       POPC     H3X      HAL2     0.900000E-01   1.00800           0
      6058 MEMB     39       POPC     H3Y      HAL2     0.900000E-01   1.00800           0
      6059 MEMB     39       POPC     C34      CTL2    -0.180000       12.0110           0
      6060 MEMB     39       POPC     H4X      HAL2     0.900000E-01   1.00800           0
      6061 MEMB     39       POPC     H4Y      HAL2     0.900000E-01   1.00800           0
      6062 MEMB     39       POPC     C35      CTL2    -0.180000       12.0110           0
      6063 MEMB     39       POPC     H5X      HAL2     0.900000E-01   1.00800           0
      6064 MEMB     39       POPC     H5Y      HAL2     0.900000E-01   1.00800           0
      6065 MEMB     39       POPC     C36      CTL2    -0.180000       12.0110           0
      6066 MEMB     39       POPC     H6X      HAL2     0.900000E-01   1.00800           0
      6067 MEMB     39       POPC     H6Y      HAL2     0.900000E-01   1.00800           0
      6068 MEMB     39       POPC     C37      CTL2    -0.180000       12.0110           0
      6069 MEMB     39       POPC     H7X      HAL2     0.900000E-01   1.00800           0
      6070 MEMB     39       POPC     H7Y      HAL2     0.900000E-01   1.00800           0
      6071 MEMB     39       POPC     C38      CTL2    -0.180000       12.0110           0
      6072 MEMB     39       POPC     H8X      HAL2     0.900000E-01   1.00800           0
      6073 MEMB     39       POPC     H8Y      HAL2     0.900000E-01   1.00800           0
      6074 MEMB     39       POPC     C39      CTL2    -0.180000       12.0110           0
      6075 MEMB     39       POPC     H9X      HAL2     0.900000E-01   1.00800           0
      6076 MEMB     39       POPC     H9Y      HAL2     0.900000E-01   1.00800           0
      6077 MEMB     39       POPC     C310     CTL2    -0.180000       12.0110           0
      6078 MEMB     39       POPC     H10X     HAL2     0.900000E-01   1.00800           0
      6079 MEMB     39       POPC     H10Y     HAL2     0.900000E-01   1.00800           0
      6080 MEMB     39       POPC     C311     CTL2    -0.180000       12.0110           0
      6081 MEMB     39       POPC     H11X     HAL2     0.900000E-01   1.00800           0
      6082 MEMB     39       POPC     H11Y     HAL2     0.900000E-01   1.00800           0
      6083 MEMB     39       POPC     C312     CTL2    -0.180000       12.0110           0
      6084 MEMB     39       POPC     H12X     HAL2     0.900000E-01   1.00800           0
      6085 MEMB     39       POPC     H12Y     HAL2     0.900000E-01   1.00800           0
      6086 MEMB     39       POPC     C313     CTL2    -0.180000       12.0110           0
      6087 MEMB     39       POPC     H13X     HAL2     0.900000E-01   1.00800           0
      6088 MEMB     39       POPC     H13Y     HAL2     0.900000E-01   1.00800           0
      6089 MEMB     39       POPC     C314     CTL2    -0.180000       12.0110           0
      6090 MEMB     39       POPC     H14X     HAL2     0.900000E-01   1.00800           0
      6091 MEMB     39       POPC     H14Y     HAL2     0.900000E-01   1.00800           0
      6092 MEMB     39       POPC     C315     CTL2    -0.180000       12.0110           0
      6093 MEMB     39       POPC     H15X     HAL2     0.900000E-01   1.00800           0
      6094 MEMB     39       POPC     H15Y     HAL2     0.900000E-01   1.00800           0
      6095 MEMB     39       POPC     C316     CTL3    -0.270000       12.0110           0
      6096 MEMB     39       POPC     H16X     HAL3     0.900000E-01   1.00800           0
      6097 MEMB     39       POPC     H16Y     HAL3     0.900000E-01   1.00800           0
      6098 MEMB     39       POPC     H16Z     HAL3     0.900000E-01   1.00800           0
      6099 MEMB     40       POPC     N        NTL     -0.600000       14.0070           0
      6100 MEMB     40       POPC     C12      CTL2    -0.100000       12.0110           0
      6101 MEMB     40       POPC     H12A     HL       0.250000       1.00800           0
      6102 MEMB     40       POPC     H12B     HL       0.250000       1.00800           0
      6103 MEMB     40       POPC     C13      CTL5    -0.350000       12.0110           0
      6104 MEMB     40       POPC     H13A     HL       0.250000       1.00800           0
      6105 MEMB     40       POPC     H13B     HL       0.250000       1.00800           0
      6106 MEMB     40       POPC     H13C     HL       0.250000       1.00800           0
      6107 MEMB     40       POPC     C14      CTL5    -0.350000       12.0110           0
      6108 MEMB     40       POPC     H14A     HL       0.250000       1.00800           0
      6109 MEMB     40       POPC     H14B     HL       0.250000       1.00800           0
      6110 MEMB     40       POPC     H14C     HL       0.250000       1.00800           0
      6111 MEMB     40       POPC     C15      CTL5    -0.350000       12.0110           0
      6112 MEMB     40       POPC     H15A     HL       0.250000       1.00800           0
      6113 MEMB     40       POPC     H15B     HL       0.250000       1.00800           0
      6114 MEMB     40       POPC     H15C     HL       0.250000       1.00800           0
      6115 MEMB     40       POPC     C11      CTL2    -0.800000E-01   12.0110           0
      6116 MEMB     40       POPC     H11A     HAL2     0.900000E-01   1.00800           0
      6117 MEMB     40       POPC     H11B     HAL2     0.900000E-01   1.00800           0
      6118 MEMB     40       POPC     P        PL        1.50000       30.9740           0
      6119 MEMB     40       POPC     O13      O2L     -0.780000       15.9994           0
      6120 MEMB     40       POPC     O14      O2L     -0.780000       15.9994           0
      6121 MEMB     40       POPC     O12      OSLP    -0.570000       15.9994           0
      6122 MEMB     40       POPC     O11      OSLP    -0.570000       15.9994           0
      6123 MEMB     40       POPC     C1       CTL2    -0.800000E-01   12.0110           0
      6124 MEMB     40       POPC     HA       HAL2     0.900000E-01   1.00800           0
      6125 MEMB     40       POPC     HB       HAL2     0.900000E-01   1.00800           0
      6126 MEMB     40       POPC     C2       CTL1     0.170000       12.0110           0
      6127 MEMB     40       POPC     HS       HAL1     0.900000E-01   1.00800           0
      6128 MEMB     40       POPC     O21      OSL     -0.490000       15.9994           0
      6129 MEMB     40       POPC     C21      CL       0.900000       12.0110           0
      6130 MEMB     40       POPC     O22      OBL     -0.630000       15.9994           0
      6131 MEMB     40       POPC     C22      CTL2    -0.220000       12.0110           0
      6132 MEMB     40       POPC     H2R      HAL2     0.900000E-01   1.00800           0
      6133 MEMB     40       POPC     H2S      HAL2     0.900000E-01   1.00800           0
      6134 MEMB     40       POPC     C3       CTL2     0.800000E-01   12.0110           0
      6135 MEMB     40       POPC     HX       HAL2     0.900000E-01   1.00800           0
      6136 MEMB     40       POPC     HY       HAL2     0.900000E-01   1.00800           0
      6137 MEMB     40       POPC     O31      OSL     -0.490000       15.9994           0
      6138 MEMB     40       POPC     C31      CL       0.900000       12.0110           0
      6139 MEMB     40       POPC     O32      OBL     -0.630000       15.9994           0
      6140 MEMB     40       POPC     C32      CTL2    -0.220000       12.0110           0
      6141 MEMB     40       POPC     H2X      HAL2     0.900000E-01   1.00800           0
      6142 MEMB     40       POPC     H2Y      HAL2     0.900000E-01   1.00800           0
      6143 MEMB     40       POPC     C23      CTL2    -0.180000       12.0110           0
      6144 MEMB     40       POPC     H3R      HAL2     0.900000E-01   1.00800           0
      6145 MEMB     40       POPC     H3S      HAL2     0.900000E-01   1.00800           0
      6146 MEMB     40       POPC     C24      CTL2    -0.180000       12.0110           0
      6147 MEMB     40       POPC     H4R      HAL2     0.900000E-01   1.00800           0
      6148 MEMB     40       POPC     H4S      HAL2     0.900000E-01   1.00800           0
      6149 MEMB     40       POPC     C25      CTL2    -0.180000       12.0110           0
      6150 MEMB     40       POPC     H5R      HAL2     0.900000E-01   1.00800           0
      6151 MEMB     40       POPC     H5S      HAL2     0.900000E-01   1.00800           0
      6152 MEMB     40       POPC     C26      CTL2    -0.180000       12.0110           0
      6153 MEMB     40       POPC     H6R      HAL2     0.900000E-01   1.00800           0
      6154 MEMB     40       POPC     H6S      HAL2     0.900000E-01   1.00800           0
      6155 MEMB     40       POPC     C27      CTL2    -0.180000       12.0110           0
      6156 MEMB     40       POPC     H7R      HAL2     0.900000E-01   1.00800           0
      6157 MEMB     40       POPC     H7S      HAL2     0.900000E-01   1.00800           0
      6158 MEMB     40       POPC     C28      CTL2    -0.180000       12.0110           0
      6159 MEMB     40       POPC     H8R      HAL2     0.900000E-01   1.00800           0
      6160 MEMB     40       POPC     H8S      HAL2     0.900000E-01   1.00800           0
      6161 MEMB     40       POPC     C29      CEL1    -0.150000       12.0110           0
      6162 MEMB     40       POPC     H91      HEL1     0.150000       1.00800           0
      6163 MEMB     40       POPC     C210     CEL1    -0.150000       12.0110           0
      6164 MEMB     40       POPC     H101     HEL1     0.150000       1.00800           0
      6165 MEMB     40       POPC     C211     CTL2    -0.180000       12.0110           0
      6166 MEMB     40       POPC     H11R     HAL2     0.900000E-01   1.00800           0
      6167 MEMB     40       POPC     H11S     HAL2     0.900000E-01   1.00800           0
      6168 MEMB     40       POPC     C212     CTL2    -0.180000       12.0110           0
      6169 MEMB     40       POPC     H12R     HAL2     0.900000E-01   1.00800           0
      6170 MEMB     40       POPC     H12S     HAL2     0.900000E-01   1.00800           0
      6171 MEMB     40       POPC     C213     CTL2    -0.180000       12.0110           0
      6172 MEMB     40       POPC     H13R     HAL2     0.900000E-01   1.00800           0
      6173 MEMB     40       POPC     H13S     HAL2     0.900000E-01   1.00800           0
      6174 MEMB     40       POPC     C214     CTL2    -0.180000       12.0110           0
      6175 MEMB     40       POPC     H14R     HAL2     0.900000E-01   1.00800           0
      6176 MEMB     40       POPC     H14S     HAL2     0.900000E-01   1.00800           0
      6177 MEMB     40       POPC     C215     CTL2    -0.180000       12.0110           0
      6178 MEMB     40       POPC     H15R     HAL2     0.900000E-01   1.00800           0
      6179 MEMB     40       POPC     H15S     HAL2     0.900000E-01   1.00800           0
      6180 MEMB     40       POPC     C216     CTL2    -0.180000       12.0110           0
      6181 MEMB     40       POPC     H16R     HAL2     0.900000E-01   1.00800           0
      6182 MEMB     40       POPC     H16S     HAL2     0.900000E-01   1.00800           0
      6183 MEMB     40       POPC     C217     CTL2    -0.180000       12.0110           0
      6184 MEMB     40       POPC     H17R     HAL2     0.900000E-01   1.00800           0
      6185 MEMB     40       POPC     H17S     HAL2     0.900000E-01   1.00800           0
      6186 MEMB     40       POPC     C218     CTL3    -0.270000       12.0110           0
      6187 MEMB     40       POPC     H18R     HAL3     0.900000E-01   1.00800           0
      6188 MEMB     40       POPC     H18S     HAL3     0.900000E-01   1.00800           0
      6189 MEMB     40       POPC     H18T     HAL3     0.900000E-01   1.00800           0
      6190 MEMB     40       POPC     C33      CTL2    -0.180000       12.0110           0
      6191 MEMB     40       POPC     H3X      HAL2     0.900000E-01   1.00800           0
      6192 MEMB     40       POPC     H3Y      HAL2     0.900000E-01   1.00800           0
      6193 MEMB     40       POPC     C34      CTL2    -0.180000       12.0110           0
      6194 MEMB     40       POPC     H4X      HAL2     0.900000E-01   1.00800           0
      6195 MEMB     40       POPC     H4Y      HAL2     0.900000E-01   1.00800           0
      6196 MEMB     40       POPC     C35      CTL2    -0.180000       12.0110           0
      6197 MEMB     40       POPC     H5X      HAL2     0.900000E-01   1.00800           0
      6198 MEMB     40       POPC     H5Y      HAL2     0.900000E-01   1.00800           0
      6199 MEMB     40       POPC     C36      CTL2    -0.180000       12.0110           0
      6200 MEMB     40       POPC     H6X      HAL2     0.900000E-01   1.00800           0
      6201 MEMB     40       POPC     H6Y      HAL2     0.900000E-01   1.00800           0
      6202 MEMB     40       POPC     C37      CTL2    -0.180000       12.0110           0
      6203 MEMB     40       POPC     H7X      HAL2     0.900000E-01   1.00800           0
      6204 MEMB     40       POPC     H7Y      HAL2     0.900000E-01   1.00800           0
      6205 MEMB     40       POPC     C38      CTL2    -0.180000       12.0110           0
      6206 MEMB     40       POPC     H8X      HAL2     0.900000E-01   1.00800           0
      6207 MEMB     40       POPC     H8Y      HAL2     0.900000E-01   1.00800           0
      6208 MEMB     40       POPC     C39      CTL2    -0.180000       12.0110           0
      6209 MEMB     40       POPC     H9X      HAL2     0.900000E-01   1.00800           0
      6210 MEMB     40       POPC     H9Y      HAL2     0.900000E-01   1.00800           0
      6211 MEMB     40       POPC     C310     CTL2    -0.180000       12.0110           0
      6212 MEMB     40       POPC     H10X     HAL2     0.900000E-01   1.00800           0
      6213 MEMB     40       POPC     H10Y     HAL2     0.900000E-01   1.00800           0
      6214 MEMB     40       POPC     C311     CTL2    -0.180000       12.0110           0
      6215 MEMB     40       POPC     H11X     HAL2     0.900000E-01   1.00800           0
      6216 MEMB     40       POPC     H11Y     HAL2     0.900000E-01   1.00800           0
      6217 MEMB     40       POPC     C312     CTL2    -0.180000       12.0110           0
      6218 MEMB     40       POPC     H12X     HAL2     0.900000E-01   1.00800           0
      6219 MEMB     40       POPC     H12Y     HAL2     0.900000E-01   1.00800           0
      6220 MEMB     40       POPC     C313     CTL2    -0.180000       12.0110           0
      6221 MEMB     40       POPC     H13X     HAL2     0.900000E-01   1.00800           0
      6222 MEMB     40       POPC     H13Y     HAL2     0.900000E-01   1.00800           0
      6223 MEMB     40       POPC     C314     CTL2    -0.180000       12.0110           0
      6224 MEMB     40       POPC     H14X     HAL2     0.900000E-01   1.00800           0
      6225 MEMB     40       POPC     H14Y     HAL2     0.900000E-01   1.00800           0
      6226 MEMB     40       POPC     C315     CTL2    -0.180000       12.0110           0
      6227 MEMB     40       POPC     H15X     HAL2     0.900000E-01   1.00800           0
      6228 MEMB     40       POPC     H15Y     HAL2     0.900000E-01   1.00800           0
      6229 MEMB     40       POPC     C316     CTL3    -0.270000       12.0110           0
      6230 MEMB     40       POPC     H16X     HAL3     0.900000E-01   1.00800           0
      6231 MEMB     40       POPC     H16Y     HAL3     0.900000E-01   1.00800           0
      6232 MEMB     40       POPC     H16Z     HAL3     0.900000E-01   1.00800           0
      6233 MEMB     41       POPC     N        NTL     -0.600000       14.0070           0
      6234 MEMB     41       POPC     C12      CTL2    -0.100000       12.0110           0
      6235 MEMB     41       POPC     H12A     HL       0.250000       1.00800           0
      6236 MEMB     41       POPC     H12B     HL       0.250000       1.00800           0
      6237 MEMB     41       POPC     C13      CTL5    -0.350000       12.0110           0
      6238 MEMB     41       POPC     H13A     HL       0.250000       1.00800           0
      6239 MEMB     41       POPC     H13B     HL       0.250000       1.00800           0
      6240 MEMB     41       POPC     H13C     HL       0.250000       1.00800           0
      6241 MEMB     41       POPC     C14      CTL5    -0.350000       12.0110           0
      6242 MEMB     41       POPC     H14A     HL       0.250000       1.00800           0
      6243 MEMB     41       POPC     H14B     HL       0.250000       1.00800           0
      6244 MEMB     41       POPC     H14C     HL       0.250000       1.00800           0
      6245 MEMB     41       POPC     C15      CTL5    -0.350000       12.0110           0
      6246 MEMB     41       POPC     H15A     HL       0.250000       1.00800           0
      6247 MEMB     41       POPC     H15B     HL       0.250000       1.00800           0
      6248 MEMB     41       POPC     H15C     HL       0.250000       1.00800           0
      6249 MEMB     41       POPC     C11      CTL2    -0.800000E-01   12.0110           0
      6250 MEMB     41       POPC     H11A     HAL2     0.900000E-01   1.00800           0
      6251 MEMB     41       POPC     H11B     HAL2     0.900000E-01   1.00800           0
      6252 MEMB     41       POPC     P        PL        1.50000       30.9740           0
      6253 MEMB     41       POPC     O13      O2L     -0.780000       15.9994           0
      6254 MEMB     41       POPC     O14      O2L     -0.780000       15.9994           0
      6255 MEMB     41       POPC     O12      OSLP    -0.570000       15.9994           0
      6256 MEMB     41       POPC     O11      OSLP    -0.570000       15.9994           0
      6257 MEMB     41       POPC     C1       CTL2    -0.800000E-01   12.0110           0
      6258 MEMB     41       POPC     HA       HAL2     0.900000E-01   1.00800           0
      6259 MEMB     41       POPC     HB       HAL2     0.900000E-01   1.00800           0
      6260 MEMB     41       POPC     C2       CTL1     0.170000       12.0110           0
      6261 MEMB     41       POPC     HS       HAL1     0.900000E-01   1.00800           0
      6262 MEMB     41       POPC     O21      OSL     -0.490000       15.9994           0
      6263 MEMB     41       POPC     C21      CL       0.900000       12.0110           0
      6264 MEMB     41       POPC     O22      OBL     -0.630000       15.9994           0
      6265 MEMB     41       POPC     C22      CTL2    -0.220000       12.0110           0
      6266 MEMB     41       POPC     H2R      HAL2     0.900000E-01   1.00800           0
      6267 MEMB     41       POPC     H2S      HAL2     0.900000E-01   1.00800           0
      6268 MEMB     41       POPC     C3       CTL2     0.800000E-01   12.0110           0
      6269 MEMB     41       POPC     HX       HAL2     0.900000E-01   1.00800           0
      6270 MEMB     41       POPC     HY       HAL2     0.900000E-01   1.00800           0
      6271 MEMB     41       POPC     O31      OSL     -0.490000       15.9994           0
      6272 MEMB     41       POPC     C31      CL       0.900000       12.0110           0
      6273 MEMB     41       POPC     O32      OBL     -0.630000       15.9994           0
      6274 MEMB     41       POPC     C32      CTL2    -0.220000       12.0110           0
      6275 MEMB     41       POPC     H2X      HAL2     0.900000E-01   1.00800           0
      6276 MEMB     41       POPC     H2Y      HAL2     0.900000E-01   1.00800           0
      6277 MEMB     41       POPC     C23      CTL2    -0.180000       12.0110           0
      6278 MEMB     41       POPC     H3R      HAL2     0.900000E-01   1.00800           0
      6279 MEMB     41       POPC     H3S      HAL2     0.900000E-01   1.00800           0
      6280 MEMB     41       POPC     C24      CTL2    -0.180000       12.0110           0
      6281 MEMB     41       POPC     H4R      HAL2     0.900000E-01   1.00800           0
      6282 MEMB     41       POPC     H4S      HAL2     0.900000E-01   1.00800           0
      6283 MEMB     41       POPC     C25      CTL2    -0.180000       12.0110           0
      6284 MEMB     41       POPC     H5R      HAL2     0.900000E-01   1.00800           0
      6285 MEMB     41       POPC     H5S      HAL2     0.900000E-01   1.00800           0
      6286 MEMB     41       POPC     C26      CTL2    -0.180000       12.0110           0
      6287 MEMB     41       POPC     H6R      HAL2     0.900000E-01   1.00800           0
      6288 MEMB     41       POPC     H6S      HAL2     0.900000E-01   1.00800           0
      6289 MEMB     41       POPC     C27      CTL2    -0.180000       12.0110           0
      6290 MEMB     41       POPC     H7R      HAL2     0.900000E-01   1.00800           0
      6291 MEMB     41       POPC     H7S      HAL2     0.900000E-01   1.00800           0
      6292 MEMB     41       POPC     C28      CTL2    -0.180000       12.0110           0
      6293 MEMB     41       POPC     H8R      HAL2     0.900000E-01   1.00800           0
      6294 MEMB     41       POPC     H8S      HAL2     0.900000E-01   1.00800           0
      6295 MEMB     41       POPC     C29      CEL1    -0.150000       12.0110           0
      6296 MEMB     41       POPC     H91      HEL1     0.150000       1.00800           0
      6297 MEMB     41       POPC     C210     CEL1    -0.150000       12.0110           0
      6298 MEMB     41       POPC     H101     HEL1     0.150000       1.00800           0
      6299 MEMB     41       POPC     C211     CTL2    -0.180000       12.0110           0
      6300 MEMB     41       POPC     H11R     HAL2     0.900000E-01   1.00800           0
      6301 MEMB     41       POPC     H11S     HAL2     0.900000E-01   1.00800           0
      6302 MEMB     41       POPC     C212     CTL2    -0.180000       12.0110           0
      6303 MEMB     41       POPC     H12R     HAL2     0.900000E-01   1.00800           0
      6304 MEMB     41       POPC     H12S     HAL2     0.900000E-01   1.00800           0
      6305 MEMB     41       POPC     C213     CTL2    -0.180000       12.0110           0
      6306 MEMB     41       POPC     H13R     HAL2     0.900000E-01   1.00800           0
      6307 MEMB     41       POPC     H13S     HAL2     0.900000E-01   1.00800           0
      6308 MEMB     41       POPC     C214     CTL2    -0.180000       12.0110           0
      6309 MEMB     41       POPC     H14R     HAL2     0.900000E-01   1.00800           0
      6310 MEMB     41       POPC     H14S     HAL2     0.900000E-01   1.00800           0
      6311 MEMB     41       POPC     C215     CTL2    -0.180000       12.0110           0
      6312 MEMB     41       POPC     H15R     HAL2     0.900000E-01   1.00800           0
      6313 MEMB     41       POPC     H15S     HAL2     0.900000E-01   1.00800           0
      6314 MEMB     41       POPC     C216     CTL2    -0.180000       12.0110           0
      6315 MEMB     41       POPC     H16R     HAL2     0.900000E-01   1.00800           0
      6316 MEMB     41       POPC     H16S     HAL2     0.900000E-01   1.00800           0
      6317 MEMB     41       POPC     C217     CTL2    -0.180000       12.0110           0
      6318 MEMB     41       POPC     H17R     HAL2     0.900000E-01   1.00800           0
      6319 MEMB     41       POPC     H17S     HAL2     0.900000E-01   1.00800           0
      6320 MEMB     41       POPC     C218     CTL3    -0.270000       12.0110           0
      6321 MEMB     41       POPC     H18R     HAL3     0.900000E-01   1.00800           0
      6322 MEMB     41       POPC     H18S     HAL3     0.900000E-01   1.00800           0
      6323 MEMB     41       POPC     H18T     HAL3     0.900000E-01   1.00800           0
      6324 MEMB     41       POPC     C33      CTL2    -0.180000       12.0110           0
      6325 MEMB     41       POPC     H3X      HAL2     0.900000E-01   1.00800           0
      6326 MEMB     41       POPC     H3Y      HAL2     0.900000E-01   1.00800           0
      6327 MEMB     41       POPC     C34      CTL2    -0.180000       12.0110           0
      6328 MEMB     41       POPC     H4X      HAL2     0.900000E-01   1.00800           0
      6329 MEMB     41       POPC     H4Y      HAL2     0.900000E-01   1.00800           0
      6330 MEMB     41       POPC     C35      CTL2    -0.180000       12.0110           0
      6331 MEMB     41       POPC     H5X      HAL2     0.900000E-01   1.00800           0
      6332 MEMB     41       POPC     H5Y      HAL2     0.900000E-01   1.00800           0
      6333 MEMB     41       POPC     C36      CTL2    -0.180000       12.0110           0
      6334 MEMB     41       POPC     H6X      HAL2     0.900000E-01   1.00800           0
      6335 MEMB     41       POPC     H6Y      HAL2     0.900000E-01   1.00800           0
      6336 MEMB     41       POPC     C37      CTL2    -0.180000       12.0110           0
      6337 MEMB     41       POPC     H7X      HAL2     0.900000E-01   1.00800           0
      6338 MEMB     41       POPC     H7Y      HAL2     0.900000E-01   1.00800           0
      6339 MEMB     41       POPC     C38      CTL2    -0.180000       12.0110           0
      6340 MEMB     41       POPC     H8X      HAL2     0.900000E-01   1.00800           0
      6341 MEMB     41       POPC     H8Y      HAL2     0.900000E-01   1.00800           0
      6342 MEMB     41       POPC     C39      CTL2    -0.180000       12.0110           0
      6343 MEMB     41       POPC     H9X      HAL2     0.900000E-01   1.00800           0
      6344 MEMB     41       POPC     H9Y      HAL2     0.900000E-01   1.00800           0
      6345 MEMB     41       POPC     C310     CTL2    -0.180000       12.0110           0
      6346 MEMB     41       POPC     H10X     HAL2     0.900000E-01   1.00800           0
      6347 MEMB     41       POPC     H10Y     HAL2     0.900000E-01   1.00800           0
      6348 MEMB     41       POPC     C311     CTL2    -0.180000       12.0110           0
      6349 MEMB     41       POPC     H11X     HAL2     0.900000E-01   1.00800           0
      6350 MEMB     41       POPC     H11Y     HAL2     0.900000E-01   1.00800           0
      6351 MEMB     41       POPC     C312     CTL2    -0.180000       12.0110           0
      6352 MEMB     41       POPC     H12X     HAL2     0.900000E-01   1.00800           0
      6353 MEMB     41       POPC     H12Y     HAL2     0.900000E-01   1.00800           0
      6354 MEMB     41       POPC     C313     CTL2    -0.180000       12.0110           0
      6355 MEMB     41       POPC     H13X     HAL2     0.900000E-01   1.00800           0
      6356 MEMB     41       POPC     H13Y     HAL2     0.900000E-01   1.00800           0
      6357 MEMB     41       POPC     C314     CTL2    -0.180000       12.0110           0
      6358 MEMB     41       POPC     H14X     HAL2     0.900000E-01   1.00800           0
      6359 MEMB     41       POPC     H14Y     HAL2     0.900000E-01   1.00800           0
      6360 MEMB     41       POPC     C315     CTL2    -0.180000       12.0110           0
      6361 MEMB     41       POPC     H15X     HAL2     0.900000E-01   1.00800           0
      6362 MEMB     41       POPC     H15Y     HAL2     0.900000E-01   1.00800           0
      6363 MEMB     41       POPC     C316     CTL3    -0.270000       12.0110           0
      6364 MEMB     41       POPC     H16X     HAL3     0.900000E-01   1.00800           0
      6365 MEMB     41       POPC     H16Y     HAL3     0.900000E-01   1.00800           0
      6366 MEMB     41       POPC     H16Z     HAL3     0.900000E-01   1.00800           0
      6367 MEMB     42       POPC     N        NTL     -0.600000       14.0070           0
      6368 MEMB     42       POPC     C12      CTL2    -0.100000       12.0110           0
      6369 MEMB     42       POPC     H12A     HL       0.250000       1.00800           0
      6370 MEMB     42       POPC     H12B     HL       0.250000       1.00800           0
      6371 MEMB     42       POPC     C13      CTL5    -0.350000       12.0110           0
      6372 MEMB     42       POPC     H13A     HL       0.250000       1.00800           0
      6373 MEMB     42       POPC     H13B     HL       0.250000       1.00800           0
      6374 MEMB     42       POPC     H13C     HL       0.250000       1.00800           0
      6375 MEMB     42       POPC     C14      CTL5    -0.350000       12.0110           0
      6376 MEMB     42       POPC     H14A     HL       0.250000       1.00800           0
      6377 MEMB     42       POPC     H14B     HL       0.250000       1.00800           0
      6378 MEMB     42       POPC     H14C     HL       0.250000       1.00800           0
      6379 MEMB     42       POPC     C15      CTL5    -0.350000       12.0110           0
      6380 MEMB     42       POPC     H15A     HL       0.250000       1.00800           0
      6381 MEMB     42       POPC     H15B     HL       0.250000       1.00800           0
      6382 MEMB     42       POPC     H15C     HL       0.250000       1.00800           0
      6383 MEMB     42       POPC     C11      CTL2    -0.800000E-01   12.0110           0
      6384 MEMB     42       POPC     H11A     HAL2     0.900000E-01   1.00800           0
      6385 MEMB     42       POPC     H11B     HAL2     0.900000E-01   1.00800           0
      6386 MEMB     42       POPC     P        PL        1.50000       30.9740           0
      6387 MEMB     42       POPC     O13      O2L     -0.780000       15.9994           0
      6388 MEMB     42       POPC     O14      O2L     -0.780000       15.9994           0
      6389 MEMB     42       POPC     O12      OSLP    -0.570000       15.9994           0
      6390 MEMB     42       POPC     O11      OSLP    -0.570000       15.9994           0
      6391 MEMB     42       POPC     C1       CTL2    -0.800000E-01   12.0110           0
      6392 MEMB     42       POPC     HA       HAL2     0.900000E-01   1.00800           0
      6393 MEMB     42       POPC     HB       HAL2     0.900000E-01   1.00800           0
      6394 MEMB     42       POPC     C2       CTL1     0.170000       12.0110           0
      6395 MEMB     42       POPC     HS       HAL1     0.900000E-01   1.00800           0
      6396 MEMB     42       POPC     O21      OSL     -0.490000       15.9994           0
      6397 MEMB     42       POPC     C21      CL       0.900000       12.0110           0
      6398 MEMB     42       POPC     O22      OBL     -0.630000       15.9994           0
      6399 MEMB     42       POPC     C22      CTL2    -0.220000       12.0110           0
      6400 MEMB     42       POPC     H2R      HAL2     0.900000E-01   1.00800           0
      6401 MEMB     42       POPC     H2S      HAL2     0.900000E-01   1.00800           0
      6402 MEMB     42       POPC     C3       CTL2     0.800000E-01   12.0110           0
      6403 MEMB     42       POPC     HX       HAL2     0.900000E-01   1.00800           0
      6404 MEMB     42       POPC     HY       HAL2     0.900000E-01   1.00800           0
      6405 MEMB     42       POPC     O31      OSL     -0.490000       15.9994           0
      6406 MEMB     42       POPC     C31      CL       0.900000       12.0110           0
      6407 MEMB     42       POPC     O32      OBL     -0.630000       15.9994           0
      6408 MEMB     42       POPC     C32      CTL2    -0.220000       12.0110           0
      6409 MEMB     42       POPC     H2X      HAL2     0.900000E-01   1.00800           0
      6410 MEMB     42       POPC     H2Y      HAL2     0.900000E-01   1.00800           0
      6411 MEMB     42       POPC     C23      CTL2    -0.180000       12.0110           0
      6412 MEMB     42       POPC     H3R      HAL2     0.900000E-01   1.00800           0
      6413 MEMB     42       POPC     H3S      HAL2     0.900000E-01   1.00800           0
      6414 MEMB     42       POPC     C24      CTL2    -0.180000       12.0110           0
      6415 MEMB     42       POPC     H4R      HAL2     0.900000E-01   1.00800           0
      6416 MEMB     42       POPC     H4S      HAL2     0.900000E-01   1.00800           0
      6417 MEMB     42       POPC     C25      CTL2    -0.180000       12.0110           0
      6418 MEMB     42       POPC     H5R      HAL2     0.900000E-01   1.00800           0
      6419 MEMB     42       POPC     H5S      HAL2     0.900000E-01   1.00800           0
      6420 MEMB     42       POPC     C26      CTL2    -0.180000       12.0110           0
      6421 MEMB     42       POPC     H6R      HAL2     0.900000E-01   1.00800           0
      6422 MEMB     42       POPC     H6S      HAL2     0.900000E-01   1.00800           0
      6423 MEMB     42       POPC     C27      CTL2    -0.180000       12.0110           0
      6424 MEMB     42       POPC     H7R      HAL2     0.900000E-01   1.00800           0
      6425 MEMB     42       POPC     H7S      HAL2     0.900000E-01   1.00800           0
      6426 MEMB     42       POPC     C28      CTL2    -0.180000       12.0110           0
      6427 MEMB     42       POPC     H8R      HAL2     0.900000E-01   1.00800           0
      6428 MEMB     42       POPC     H8S      HAL2     0.900000E-01   1.00800           0
      6429 MEMB     42       POPC     C29      CEL1    -0.150000       12.0110           0
      6430 MEMB     42       POPC     H91      HEL1     0.150000       1.00800           0
      6431 MEMB     42       POPC     C210     CEL1    -0.150000       12.0110           0
      6432 MEMB     42       POPC     H101     HEL1     0.150000       1.00800           0
      6433 MEMB     42       POPC     C211     CTL2    -0.180000       12.0110           0
      6434 MEMB     42       POPC     H11R     HAL2     0.900000E-01   1.00800           0
      6435 MEMB     42       POPC     H11S     HAL2     0.900000E-01   1.00800           0
      6436 MEMB     42       POPC     C212     CTL2    -0.180000       12.0110           0
      6437 MEMB     42       POPC     H12R     HAL2     0.900000E-01   1.00800           0
      6438 MEMB     42       POPC     H12S     HAL2     0.900000E-01   1.00800           0
      6439 MEMB     42       POPC     C213     CTL2    -0.180000       12.0110           0
      6440 MEMB     42       POPC     H13R     HAL2     0.900000E-01   1.00800           0
      6441 MEMB     42       POPC     H13S     HAL2     0.900000E-01   1.00800           0
      6442 MEMB     42       POPC     C214     CTL2    -0.180000       12.0110           0
      6443 MEMB     42       POPC     H14R     HAL2     0.900000E-01   1.00800           0
      6444 MEMB     42       POPC     H14S     HAL2     0.900000E-01   1.00800           0
      6445 MEMB     42       POPC     C215     CTL2    -0.180000       12.0110           0
      6446 MEMB     42       POPC     H15R     HAL2     0.900000E-01   1.00800           0
      6447 MEMB     42       POPC     H15S     HAL2     0.900000E-01   1.00800           0
      6448 MEMB     42       POPC     C216     CTL2    -0.180000       12.0110           0
      6449 MEMB     42       POPC     H16R     HAL2     0.900000E-01   1.00800           0
      6450 MEMB     42       POPC     H16S     HAL2     0.900000E-01   1.00800           0
      6451 MEMB     42       POPC     C217     CTL2    -0.180000       12.0110           0
      6452 MEMB     42       POPC     H17R     HAL2     0.900000E-01   1.00800           0
      6453 MEMB     42       POPC     H17S     HAL2     0.900000E-01   1.00800           0
      6454 MEMB     42       POPC     C218     CTL3    -0.270000       12.0110           0
      6455 MEMB     42       POPC     H18R     HAL3     0.900000E-01   1.00800           0
      6456 MEMB     42       POPC     H18S     HAL3     0.900000E-01   1.00800           0
      6457 MEMB     42       POPC     H18T     HAL3     0.900000E-01   1.00800           0
      6458 MEMB     42       POPC     C33      CTL2    -0.180000       12.0110           0
      6459 MEMB     42       POPC     H3X      HAL2     0.900000E-01   1.00800           0
      6460 MEMB     42       POPC     H3Y      HAL2     0.900000E-01   1.00800           0
      6461 MEMB     42       POPC     C34      CTL2    -0.180000       12.0110           0
      6462 MEMB     42       POPC     H4X      HAL2     0.900000E-01   1.00800           0
      6463 MEMB     42       POPC     H4Y      HAL2     0.900000E-01   1.00800           0
      6464 MEMB     42       POPC     C35      CTL2    -0.180000       12.0110           0
      6465 MEMB     42       POPC     H5X      HAL2     0.900000E-01   1.00800           0
      6466 MEMB     42       POPC     H5Y      HAL2     0.900000E-01   1.00800           0
      6467 MEMB     42       POPC     C36      CTL2    -0.180000       12.0110           0
      6468 MEMB     42       POPC     H6X      HAL2     0.900000E-01   1.00800           0
      6469 MEMB     42       POPC     H6Y      HAL2     0.900000E-01   1.00800           0
      6470 MEMB     42       POPC     C37      CTL2    -0.180000       12.0110           0
      6471 MEMB     42       POPC     H7X      HAL2     0.900000E-01   1.00800           0
      6472 MEMB     42       POPC     H7Y      HAL2     0.900000E-01   1.00800           0
      6473 MEMB     42       POPC     C38      CTL2    -0.180000       12.0110           0
      6474 MEMB     42       POPC     H8X      HAL2     0.900000E-01   1.00800           0
      6475 MEMB     42       POPC     H8Y      HAL2     0.900000E-01   1.00800           0
      6476 MEMB     42       POPC     C39      CTL2    -0.180000       12.0110           0
      6477 MEMB     42       POPC     H9X      HAL2     0.900000E-01   1.00800           0
      6478 MEMB     42       POPC     H9Y      HAL2     0.900000E-01   1.00800           0
      6479 MEMB     42       POPC     C310     CTL2    -0.180000       12.0110           0
      6480 MEMB     42       POPC     H10X     HAL2     0.900000E-01   1.00800           0
      6481 MEMB     42       POPC     H10Y     HAL2     0.900000E-01   1.00800           0
      6482 MEMB     42       POPC     C311     CTL2    -0.180000       12.0110           0
      6483 MEMB     42       POPC     H11X     HAL2     0.900000E-01   1.00800           0
      6484 MEMB     42       POPC     H11Y     HAL2     0.900000E-01   1.00800           0
      6485 MEMB     42       POPC     C312     CTL2    -0.180000       12.0110           0
      6486 MEMB     42       POPC     H12X     HAL2     0.900000E-01   1.00800           0
      6487 MEMB     42       POPC     H12Y     HAL2     0.900000E-01   1.00800           0
      6488 MEMB     42       POPC     C313     CTL2    -0.180000       12.0110           0
      6489 MEMB     42       POPC     H13X     HAL2     0.900000E-01   1.00800           0
      6490 MEMB     42       POPC     H13Y     HAL2     0.900000E-01   1.00800           0
      6491 MEMB     42       POPC     C314     CTL2    -0.180000       12.0110           0
      6492 MEMB     42       POPC     H14X     HAL2     0.900000E-01   1.00800           0
      6493 MEMB     42       POPC     H14Y     HAL2     0.900000E-01   1.00800           0
      6494 MEMB     42       POPC     C315     CTL2    -0.180000       12.0110           0
      6495 MEMB     42       POPC     H15X     HAL2     0.900000E-01   1.00800           0
      6496 MEMB     42       POPC     H15Y     HAL2     0.900000E-01   1.00800           0
      6497 MEMB     42       POPC     C316     CTL3    -0.270000       12.0110           0
      6498 MEMB     42       POPC     H16X     HAL3     0.900000E-01   1.00800           0
      6499 MEMB     42       POPC     H16Y     HAL3     0.900000E-01   1.00800           0
      6500 MEMB     42       POPC     H16Z     HAL3     0.900000E-01   1.00800           0
      6501 MEMB     43       POPC     N        NTL     -0.600000       14.0070           0
      6502 MEMB     43       POPC     C12      CTL2    -0.100000       12.0110           0
      6503 MEMB     43       POPC     H12A     HL       0.250000       1.00800           0
      6504 MEMB     43       POPC     H12B     HL       0.250000       1.00800           0
      6505 MEMB     43       POPC     C13      CTL5    -0.350000       12.0110           0
      6506 MEMB     43       POPC     H13A     HL       0.250000       1.00800           0
      6507 MEMB     43       POPC     H13B     HL       0.250000       1.00800           0
      6508 MEMB     43       POPC     H13C     HL       0.250000       1.00800           0
      6509 MEMB     43       POPC     C14      CTL5    -0.350000       12.0110           0
      6510 MEMB     43       POPC     H14A     HL       0.250000       1.00800           0
      6511 MEMB     43       POPC     H14B     HL       0.250000       1.00800           0
      6512 MEMB     43       POPC     H14C     HL       0.250000       1.00800           0
      6513 MEMB     43       POPC     C15      CTL5    -0.350000       12.0110           0
      6514 MEMB     43       POPC     H15A     HL       0.250000       1.00800           0
      6515 MEMB     43       POPC     H15B     HL       0.250000       1.00800           0
      6516 MEMB     43       POPC     H15C     HL       0.250000       1.00800           0
      6517 MEMB     43       POPC     C11      CTL2    -0.800000E-01   12.0110           0
      6518 MEMB     43       POPC     H11A     HAL2     0.900000E-01   1.00800           0
      6519 MEMB     43       POPC     H11B     HAL2     0.900000E-01   1.00800           0
      6520 MEMB     43       POPC     P        PL        1.50000       30.9740           0
      6521 MEMB     43       POPC     O13      O2L     -0.780000       15.9994           0
      6522 MEMB     43       POPC     O14      O2L     -0.780000       15.9994           0
      6523 MEMB     43       POPC     O12      OSLP    -0.570000       15.9994           0
      6524 MEMB     43       POPC     O11      OSLP    -0.570000       15.9994           0
      6525 MEMB     43       POPC     C1       CTL2    -0.800000E-01   12.0110           0
      6526 MEMB     43       POPC     HA       HAL2     0.900000E-01   1.00800           0
      6527 MEMB     43       POPC     HB       HAL2     0.900000E-01   1.00800           0
      6528 MEMB     43       POPC     C2       CTL1     0.170000       12.0110           0
      6529 MEMB     43       POPC     HS       HAL1     0.900000E-01   1.00800           0
      6530 MEMB     43       POPC     O21      OSL     -0.490000       15.9994           0
      6531 MEMB     43       POPC     C21      CL       0.900000       12.0110           0
      6532 MEMB     43       POPC     O22      OBL     -0.630000       15.9994           0
      6533 MEMB     43       POPC     C22      CTL2    -0.220000       12.0110           0
      6534 MEMB     43       POPC     H2R      HAL2     0.900000E-01   1.00800           0
      6535 MEMB     43       POPC     H2S      HAL2     0.900000E-01   1.00800           0
      6536 MEMB     43       POPC     C3       CTL2     0.800000E-01   12.0110           0
      6537 MEMB     43       POPC     HX       HAL2     0.900000E-01   1.00800           0
      6538 MEMB     43       POPC     HY       HAL2     0.900000E-01   1.00800           0
      6539 MEMB     43       POPC     O31      OSL     -0.490000       15.9994           0
      6540 MEMB     43       POPC     C31      CL       0.900000       12.0110           0
      6541 MEMB     43       POPC     O32      OBL     -0.630000       15.9994           0
      6542 MEMB     43       POPC     C32      CTL2    -0.220000       12.0110           0
      6543 MEMB     43       POPC     H2X      HAL2     0.900000E-01   1.00800           0
      6544 MEMB     43       POPC     H2Y      HAL2     0.900000E-01   1.00800           0
      6545 MEMB     43       POPC     C23      CTL2    -0.180000       12.0110           0
      6546 MEMB     43       POPC     H3R      HAL2     0.900000E-01   1.00800           0
      6547 MEMB     43       POPC     H3S      HAL2     0.900000E-01   1.00800           0
      6548 MEMB     43       POPC     C24      CTL2    -0.180000       12.0110           0
      6549 MEMB     43       POPC     H4R      HAL2     0.900000E-01   1.00800           0
      6550 MEMB     43       POPC     H4S      HAL2     0.900000E-01   1.00800           0
      6551 MEMB     43       POPC     C25      CTL2    -0.180000       12.0110           0
      6552 MEMB     43       POPC     H5R      HAL2     0.900000E-01   1.00800           0
      6553 MEMB     43       POPC     H5S      HAL2     0.900000E-01   1.00800           0
      6554 MEMB     43       POPC     C26      CTL2    -0.180000       12.0110           0
      6555 MEMB     43       POPC     H6R      HAL2     0.900000E-01   1.00800           0
      6556 MEMB     43       POPC     H6S      HAL2     0.900000E-01   1.00800           0
      6557 MEMB     43       POPC     C27      CTL2    -0.180000       12.0110           0
      6558 MEMB     43       POPC     H7R      HAL2     0.900000E-01   1.00800           0
      6559 MEMB     43       POPC     H7S      HAL2     0.900000E-01   1.00800           0
      6560 MEMB     43       POPC     C28      CTL2    -0.180000       12.0110           0
      6561 MEMB     43       POPC     H8R      HAL2     0.900000E-01   1.00800           0
      6562 MEMB     43       POPC     H8S      HAL2     0.900000E-01   1.00800           0
      6563 MEMB     43       POPC     C29      CEL1    -0.150000       12.0110           0
      6564 MEMB     43       POPC     H91      HEL1     0.150000       1.00800           0
      6565 MEMB     43       POPC     C210     CEL1    -0.150000       12.0110           0
      6566 MEMB     43       POPC     H101     HEL1     0.150000       1.00800           0
      6567 MEMB     43       POPC     C211     CTL2    -0.180000       12.0110           0
      6568 MEMB     43       POPC     H11R     HAL2     0.900000E-01   1.00800           0
      6569 MEMB     43       POPC     H11S     HAL2     0.900000E-01   1.00800           0
      6570 MEMB     43       POPC     C212     CTL2    -0.180000       12.0110           0
      6571 MEMB     43       POPC     H12R     HAL2     0.900000E-01   1.00800           0
      6572 MEMB     43       POPC     H12S     HAL2     0.900000E-01   1.00800           0
      6573 MEMB     43       POPC     C213     CTL2    -0.180000       12.0110           0
      6574 MEMB     43       POPC     H13R     HAL2     0.900000E-01   1.00800           0
      6575 MEMB     43       POPC     H13S     HAL2     0.900000E-01   1.00800           0
      6576 MEMB     43       POPC     C214     CTL2    -0.180000       12.0110           0
      6577 MEMB     43       POPC     H14R     HAL2     0.900000E-01   1.00800           0
      6578 MEMB     43       POPC     H14S     HAL2     0.900000E-01   1.00800           0
      6579 MEMB     43       POPC     C215     CTL2    -0.180000       12.0110           0
      6580 MEMB     43       POPC     H15R     HAL2     0.900000E-01   1.00800           0
      6581 MEMB     43       POPC     H15S     HAL2     0.900000E-01   1.00800           0
      6582 MEMB     43       POPC     C216     CTL2    -0.180000       12.0110           0
      6583 MEMB     43       POPC     H16R     HAL2     0.900000E-01   1.00800           0
      6584 MEMB     43       POPC     H16S     HAL2     0.900000E-01   1.00800           0
      6585 MEMB     43       POPC     C217     CTL2    -0.180000       12.0110           0
      6586 MEMB     43       POPC     H17R     HAL2     0.900000E-01   1.00800           0
      6587 MEMB     43       POPC     H17S     HAL2     0.900000E-01   1.00800           0
      6588 MEMB     43       POPC     C218     CTL3    -0.270000       12.0110           0
      6589 MEMB     43       POPC     H18R     HAL3     0.900000E-01   1.00800           0
      6590 MEMB     43       POPC     H18S     HAL3     0.900000E-01   1.00800           0
      6591 MEMB     43       POPC     H18T     HAL3     0.900000E-01   1.00800           0
      6592 MEMB     43       POPC     C33      CTL2    -0.180000       12.0110           0
      6593 MEMB     43       POPC     H3X      HAL2     0.900000E-01   1.00800           0
      6594 MEMB     43       POPC     H3Y      HAL2     0.900000E-01   1.00800           0
      6595 MEMB     43       POPC     C34      CTL2    -0.180000       12.0110           0
      6596 MEMB     43       POPC     H4X      HAL2     0.900000E-01   1.00800           0
      6597 MEMB     43       POPC     H4Y      HAL2     0.900000E-01   1.00800           0
      6598 MEMB     43       POPC     C35      CTL2    -0.180000       12.0110           0
      6599 MEMB     43       POPC     H5X      HAL2     0.900000E-01   1.00800           0
      6600 MEMB     43       POPC     H5Y      HAL2     0.900000E-01   1.00800           0
      6601 MEMB     43       POPC     C36      CTL2    -0.180000       12.0110           0
      6602 MEMB     43       POPC     H6X      HAL2     0.900000E-01   1.00800           0
      6603 MEMB     43       POPC     H6Y      HAL2     0.900000E-01   1.00800           0
      6604 MEMB     43       POPC     C37      CTL2    -0.180000       12.0110           0
      6605 MEMB     43       POPC     H7X      HAL2     0.900000E-01   1.00800           0
      6606 MEMB     43       POPC     H7Y      HAL2     0.900000E-01   1.00800           0
      6607 MEMB     43       POPC     C38      CTL2    -0.180000       12.0110           0
      6608 MEMB     43       POPC     H8X      HAL2     0.900000E-01   1.00800           0
      6609 MEMB     43       POPC     H8Y      HAL2     0.900000E-01   1.00800           0
      6610 MEMB     43       POPC     C39      CTL2    -0.180000       12.0110           0
      6611 MEMB     43       POPC     H9X      HAL2     0.900000E-01   1.00800           0
      6612 MEMB     43       POPC     H9Y      HAL2     0.900000E-01   1.00800           0
      6613 MEMB     43       POPC     C310     CTL2    -0.180000       12.0110           0
      6614 MEMB     43       POPC     H10X     HAL2     0.900000E-01   1.00800           0
      6615 MEMB     43       POPC     H10Y     HAL2     0.900000E-01   1.00800           0
      6616 MEMB     43       POPC     C311     CTL2    -0.180000       12.0110           0
      6617 MEMB     43       POPC     H11X     HAL2     0.900000E-01   1.00800           0
      6618 MEMB     43       POPC     H11Y     HAL2     0.900000E-01   1.00800           0
      6619 MEMB     43       POPC     C312     CTL2    -0.180000       12.0110           0
      6620 MEMB     43       POPC     H12X     HAL2     0.900000E-01   1.00800           0
      6621 MEMB     43       POPC     H12Y     HAL2     0.900000E-01   1.00800           0
      6622 MEMB     43       POPC     C313     CTL2    -0.180000       12.0110           0
      6623 MEMB     43       POPC     H13X     HAL2     0.900000E-01   1.00800           0
      6624 MEMB     43       POPC     H13Y     HAL2     0.900000E-01   1.00800           0
      6625 MEMB     43       POPC     C314     CTL2    -0.180000       12.0110           0
      6626 MEMB     43       POPC     H14X     HAL2     0.900000E-01   1.00800           0
      6627 MEMB     43       POPC     H14Y     HAL2     0.900000E-01   1.00800           0
      6628 MEMB     43       POPC     C315     CTL2    -0.180000       12.0110           0
      6629 MEMB     43       POPC     H15X     HAL2     0.900000E-01   1.00800           0
      6630 MEMB     43       POPC     H15Y     HAL2     0.900000E-01   1.00800           0
      6631 MEMB     43       POPC     C316     CTL3    -0.270000       12.0110           0
      6632 MEMB     43       POPC     H16X     HAL3     0.900000E-01   1.00800           0
      6633 MEMB     43       POPC     H16Y     HAL3     0.900000E-01   1.00800           0
      6634 MEMB     43       POPC     H16Z     HAL3     0.900000E-01   1.00800           0
      6635 MEMB     44       POPC     N        NTL     -0.600000       14.0070           0
      6636 MEMB     44       POPC     C12      CTL2    -0.100000       12.0110           0
      6637 MEMB     44       POPC     H12A     HL       0.250000       1.00800           0
      6638 MEMB     44       POPC     H12B     HL       0.250000       1.00800           0
      6639 MEMB     44       POPC     C13      CTL5    -0.350000       12.0110           0
      6640 MEMB     44       POPC     H13A     HL       0.250000       1.00800           0
      6641 MEMB     44       POPC     H13B     HL       0.250000       1.00800           0
      6642 MEMB     44       POPC     H13C     HL       0.250000       1.00800           0
      6643 MEMB     44       POPC     C14      CTL5    -0.350000       12.0110           0
      6644 MEMB     44       POPC     H14A     HL       0.250000       1.00800           0
      6645 MEMB     44       POPC     H14B     HL       0.250000       1.00800           0
      6646 MEMB     44       POPC     H14C     HL       0.250000       1.00800           0
      6647 MEMB     44       POPC     C15      CTL5    -0.350000       12.0110           0
      6648 MEMB     44       POPC     H15A     HL       0.250000       1.00800           0
      6649 MEMB     44       POPC     H15B     HL       0.250000       1.00800           0
      6650 MEMB     44       POPC     H15C     HL       0.250000       1.00800           0
      6651 MEMB     44       POPC     C11      CTL2    -0.800000E-01   12.0110           0
      6652 MEMB     44       POPC     H11A     HAL2     0.900000E-01   1.00800           0
      6653 MEMB     44       POPC     H11B     HAL2     0.900000E-01   1.00800           0
      6654 MEMB     44       POPC     P        PL        1.50000       30.9740           0
      6655 MEMB     44       POPC     O13      O2L     -0.780000       15.9994           0
      6656 MEMB     44       POPC     O14      O2L     -0.780000       15.9994           0
      6657 MEMB     44       POPC     O12      OSLP    -0.570000       15.9994           0
      6658 MEMB     44       POPC     O11      OSLP    -0.570000       15.9994           0
      6659 MEMB     44       POPC     C1       CTL2    -0.800000E-01   12.0110           0
      6660 MEMB     44       POPC     HA       HAL2     0.900000E-01   1.00800           0
      6661 MEMB     44       POPC     HB       HAL2     0.900000E-01   1.00800           0
      6662 MEMB     44       POPC     C2       CTL1     0.170000       12.0110           0
      6663 MEMB     44       POPC     HS       HAL1     0.900000E-01   1.00800           0
      6664 MEMB     44       POPC     O21      OSL     -0.490000       15.9994           0
      6665 MEMB     44       POPC     C21      CL       0.900000       12.0110           0
      6666 MEMB     44       POPC     O22      OBL     -0.630000       15.9994           0
      6667 MEMB     44       POPC     C22      CTL2    -0.220000       12.0110           0
      6668 MEMB     44       POPC     H2R      HAL2     0.900000E-01   1.00800           0
      6669 MEMB     44       POPC     H2S      HAL2     0.900000E-01   1.00800           0
      6670 MEMB     44       POPC     C3       CTL2     0.800000E-01   12.0110           0
      6671 MEMB     44       POPC     HX       HAL2     0.900000E-01   1.00800           0
      6672 MEMB     44       POPC     HY       HAL2     0.900000E-01   1.00800           0
      6673 MEMB     44       POPC     O31      OSL     -0.490000       15.9994           0
      6674 MEMB     44       POPC     C31      CL       0.900000       12.0110           0
      6675 MEMB     44       POPC     O32      OBL     -0.630000       15.9994           0
      6676 MEMB     44       POPC     C32      CTL2    -0.220000       12.0110           0
      6677 MEMB     44       POPC     H2X      HAL2     0.900000E-01   1.00800           0
      6678 MEMB     44       POPC     H2Y      HAL2     0.900000E-01   1.00800           0
      6679 MEMB     44       POPC     C23      CTL2    -0.180000       12.0110           0
      6680 MEMB     44       POPC     H3R      HAL2     0.900000E-01   1.00800           0
      6681 MEMB     44       POPC     H3S      HAL2     0.900000E-01   1.00800           0
      6682 MEMB     44       POPC     C24      CTL2    -0.180000       12.0110           0
      6683 MEMB     44       POPC     H4R      HAL2     0.900000E-01   1.00800           0
      6684 MEMB     44       POPC     H4S      HAL2     0.900000E-01   1.00800           0
      6685 MEMB     44       POPC     C25      CTL2    -0.180000       12.0110           0
      6686 MEMB     44       POPC     H5R      HAL2     0.900000E-01   1.00800           0
      6687 MEMB     44       POPC     H5S      HAL2     0.900000E-01   1.00800           0
      6688 MEMB     44       POPC     C26      CTL2    -0.180000       12.0110           0
      6689 MEMB     44       POPC     H6R      HAL2     0.900000E-01   1.00800           0
      6690 MEMB     44       POPC     H6S      HAL2     0.900000E-01   1.00800           0
      6691 MEMB     44       POPC     C27      CTL2    -0.180000       12.0110           0
      6692 MEMB     44       POPC     H7R      HAL2     0.900000E-01   1.00800           0
      6693 MEMB     44       POPC     H7S      HAL2     0.900000E-01   1.00800           0
      6694 MEMB     44       POPC     C28      CTL2    -0.180000       12.0110           0
      6695 MEMB     44       POPC     H8R      HAL2     0.900000E-01   1.00800           0
      6696 MEMB     44       POPC     H8S      HAL2     0.900000E-01   1.00800           0
      6697 MEMB     44       POPC     C29      CEL1    -0.150000       12.0110           0
      6698 MEMB     44       POPC     H91      HEL1     0.150000       1.00800           0
      6699 MEMB     44       POPC     C210     CEL1    -0.150000       12.0110           0
      6700 MEMB     44       POPC     H101     HEL1     0.150000       1.00800           0
      6701 MEMB     44       POPC     C211     CTL2    -0.180000       12.0110           0
      6702 MEMB     44       POPC     H11R     HAL2     0.900000E-01   1.00800           0
      6703 MEMB     44       POPC     H11S     HAL2     0.900000E-01   1.00800           0
      6704 MEMB     44       POPC     C212     CTL2    -0.180000       12.0110           0
      6705 MEMB     44       POPC     H12R     HAL2     0.900000E-01   1.00800           0
      6706 MEMB     44       POPC     H12S     HAL2     0.900000E-01   1.00800           0
      6707 MEMB     44       POPC     C213     CTL2    -0.180000       12.0110           0
      6708 MEMB     44       POPC     H13R     HAL2     0.900000E-01   1.00800           0
      6709 MEMB     44       POPC     H13S     HAL2     0.900000E-01   1.00800           0
      6710 MEMB     44       POPC     C214     CTL2    -0.180000       12.0110           0
      6711 MEMB     44       POPC     H14R     HAL2     0.900000E-01   1.00800           0
      6712 MEMB     44       POPC     H14S     HAL2     0.900000E-01   1.00800           0
      6713 MEMB     44       POPC     C215     CTL2    -0.180000       12.0110           0
      6714 MEMB     44       POPC     H15R     HAL2     0.900000E-01   1.00800           0
      6715 MEMB     44       POPC     H15S     HAL2     0.900000E-01   1.00800           0
      6716 MEMB     44       POPC     C216     CTL2    -0.180000       12.0110           0
      6717 MEMB     44       POPC     H16R     HAL2     0.900000E-01   1.00800           0
      6718 MEMB     44       POPC     H16S     HAL2     0.900000E-01   1.00800           0
      6719 MEMB     44       POPC     C217     CTL2    -0.180000       12.0110           0
      6720 MEMB     44       POPC     H17R     HAL2     0.900000E-01   1.00800           0
      6721 MEMB     44       POPC     H17S     HAL2     0.900000E-01   1.00800           0
      6722 MEMB     44       POPC     C218     CTL3    -0.270000       12.0110           0
      6723 MEMB     44       POPC     H18R     HAL3     0.900000E-01   1.00800           0
      6724 MEMB     44       POPC     H18S     HAL3     0.900000E-01   1.00800           0
      6725 MEMB     44       POPC     H18T     HAL3     0.900000E-01   1.00800           0
      6726 MEMB     44       POPC     C33      CTL2    -0.180000       12.0110           0
      6727 MEMB     44       POPC     H3X      HAL2     0.900000E-01   1.00800           0
      6728 MEMB     44       POPC     H3Y      HAL2     0.900000E-01   1.00800           0
      6729 MEMB     44       POPC     C34      CTL2    -0.180000       12.0110           0
      6730 MEMB     44       POPC     H4X      HAL2     0.900000E-01   1.00800           0
      6731 MEMB     44       POPC     H4Y      HAL2     0.900000E-01   1.00800           0
      6732 MEMB     44       POPC     C35      CTL2    -0.180000       12.0110           0
      6733 MEMB     44       POPC     H5X      HAL2     0.900000E-01   1.00800           0
      6734 MEMB     44       POPC     H5Y      HAL2     0.900000E-01   1.00800           0
      6735 MEMB     44       POPC     C36      CTL2    -0.180000       12.0110           0
      6736 MEMB     44       POPC     H6X      HAL2     0.900000E-01   1.00800           0
      6737 MEMB     44       POPC     H6Y      HAL2     0.900000E-01   1.00800           0
      6738 MEMB     44       POPC     C37      CTL2    -0.180000       12.0110           0
      6739 MEMB     44       POPC     H7X      HAL2     0.900000E-01   1.00800           0
      6740 MEMB     44       POPC     H7Y      HAL2     0.900000E-01   1.00800           0
      6741 MEMB     44       POPC     C38      CTL2    -0.180000       12.0110           0
      6742 MEMB     44       POPC     H8X      HAL2     0.900000E-01   1.00800           0
      6743 MEMB     44       POPC     H8Y      HAL2     0.900000E-01   1.00800           0
      6744 MEMB     44       POPC     C39      CTL2    -0.180000       12.0110           0
      6745 MEMB     44       POPC     H9X      HAL2     0.900000E-01   1.00800           0
      6746 MEMB     44       POPC     H9Y      HAL2     0.900000E-01   1.00800           0
      6747 MEMB     44       POPC     C310     CTL2    -0.180000       12.0110           0
      6748 MEMB     44       POPC     H10X     HAL2     0.900000E-01   1.00800           0
      6749 MEMB     44       POPC     H10Y     HAL2     0.900000E-01   1.00800           0
      6750 MEMB     44       POPC     C311     CTL2    -0.180000       12.0110           0
      6751 MEMB     44       POPC     H11X     HAL2     0.900000E-01   1.00800           0
      6752 MEMB     44       POPC     H11Y     HAL2     0.900000E-01   1.00800           0
      6753 MEMB     44       POPC     C312     CTL2    -0.180000       12.0110           0
      6754 MEMB     44       POPC     H12X     HAL2     0.900000E-01   1.00800           0
      6755 MEMB     44       POPC     H12Y     HAL2     0.900000E-01   1.00800           0
      6756 MEMB     44       POPC     C313     CTL2    -0.180000       12.0110           0
      6757 MEMB     44       POPC     H13X     HAL2     0.900000E-01   1.00800           0
      6758 MEMB     44       POPC     H13Y     HAL2     0.900000E-01   1.00800           0
      6759 MEMB     44       POPC     C314     CTL2    -0.180000       12.0110           0
      6760 MEMB     44       POPC     H14X     HAL2     0.900000E-01   1.00800           0
      6761 MEMB     44       POPC     H14Y     HAL2     0.900000E-01   1.00800           0
      6762 MEMB     44       POPC     C315     CTL2    -0.180000       12.0110           0
      6763 MEMB     44       POPC     H15X     HAL2     0.900000E-01   1.00800           0
      6764 MEMB     44       POPC     H15Y     HAL2     0.900000E-01   1.00800           0
      6765 MEMB     44       POPC     C316     CTL3    -0.270000       12.0110           0
      6766 MEMB     44       POPC     H16X     HAL3     0.900000E-01   1.00800           0
      6767 MEMB     44       POPC     H16Y     HAL3     0.900000E-01   1.00800           0
      6768 MEMB     44       POPC     H16Z     HAL3     0.900000E-01   1.00800           0
      6769 MEMB     45       POPC     N        NTL     -0.600000       14.0070           0
      6770 MEMB     45       POPC     C12      CTL2    -0.100000       12.0110           0
      6771 MEMB     45       POPC     H12A     HL       0.250000       1.00800           0
      6772 MEMB     45       POPC     H12B     HL       0.250000       1.00800           0
      6773 MEMB     45       POPC     C13      CTL5    -0.350000       12.0110           0
      6774 MEMB     45       POPC     H13A     HL       0.250000       1.00800           0
      6775 MEMB     45       POPC     H13B     HL       0.250000       1.00800           0
      6776 MEMB     45       POPC     H13C     HL       0.250000       1.00800           0
      6777 MEMB     45       POPC     C14      CTL5    -0.350000       12.0110           0
      6778 MEMB     45       POPC     H14A     HL       0.250000       1.00800           0
      6779 MEMB     45       POPC     H14B     HL       0.250000       1.00800           0
      6780 MEMB     45       POPC     H14C     HL       0.250000       1.00800           0
      6781 MEMB     45       POPC     C15      CTL5    -0.350000       12.0110           0
      6782 MEMB     45       POPC     H15A     HL       0.250000       1.00800           0
      6783 MEMB     45       POPC     H15B     HL       0.250000       1.00800           0
      6784 MEMB     45       POPC     H15C     HL       0.250000       1.00800           0
      6785 MEMB     45       POPC     C11      CTL2    -0.800000E-01   12.0110           0
      6786 MEMB     45       POPC     H11A     HAL2     0.900000E-01   1.00800           0
      6787 MEMB     45       POPC     H11B     HAL2     0.900000E-01   1.00800           0
      6788 MEMB     45       POPC     P        PL        1.50000       30.9740           0
      6789 MEMB     45       POPC     O13      O2L     -0.780000       15.9994           0
      6790 MEMB     45       POPC     O14      O2L     -0.780000       15.9994           0
      6791 MEMB     45       POPC     O12      OSLP    -0.570000       15.9994           0
      6792 MEMB     45       POPC     O11      OSLP    -0.570000       15.9994           0
      6793 MEMB     45       POPC     C1       CTL2    -0.800000E-01   12.0110           0
      6794 MEMB     45       POPC     HA       HAL2     0.900000E-01   1.00800           0
      6795 MEMB     45       POPC     HB       HAL2     0.900000E-01   1.00800           0
      6796 MEMB     45       POPC     C2       CTL1     0.170000       12.0110           0
      6797 MEMB     45       POPC     HS       HAL1     0.900000E-01   1.00800           0
      6798 MEMB     45       POPC     O21      OSL     -0.490000       15.9994           0
      6799 MEMB     45       POPC     C21      CL       0.900000       12.0110           0
      6800 MEMB     45       POPC     O22      OBL     -0.630000       15.9994           0
      6801 MEMB     45       POPC     C22      CTL2    -0.220000       12.0110           0
      6802 MEMB     45       POPC     H2R      HAL2     0.900000E-01   1.00800           0
      6803 MEMB     45       POPC     H2S      HAL2     0.900000E-01   1.00800           0
      6804 MEMB     45       POPC     C3       CTL2     0.800000E-01   12.0110           0
      6805 MEMB     45       POPC     HX       HAL2     0.900000E-01   1.00800           0
      6806 MEMB     45       POPC     HY       HAL2     0.900000E-01   1.00800           0
      6807 MEMB     45       POPC     O31      OSL     -0.490000       15.9994           0
      6808 MEMB     45       POPC     C31      CL       0.900000       12.0110           0
      6809 MEMB     45       POPC     O32      OBL     -0.630000       15.9994           0
      6810 MEMB     45       POPC     C32      CTL2    -0.220000       12.0110           0
      6811 MEMB     45       POPC     H2X      HAL2     0.900000E-01   1.00800           0
      6812 MEMB     45       POPC     H2Y      HAL2     0.900000E-01   1.00800           0
      6813 MEMB     45       POPC     C23      CTL2    -0.180000       12.0110           0
      6814 MEMB     45       POPC     H3R      HAL2     0.900000E-01   1.00800           0
      6815 MEMB     45       POPC     H3S      HAL2     0.900000E-01   1.00800           0
      6816 MEMB     45       POPC     C24      CTL2    -0.180000       12.0110           0
      6817 MEMB     45       POPC     H4R      HAL2     0.900000E-01   1.00800           0
      6818 MEMB     45       POPC     H4S      HAL2     0.900000E-01   1.00800           0
      6819 MEMB     45       POPC     C25      CTL2    -0.180000       12.0110           0
      6820 MEMB     45       POPC     H5R      HAL2     0.900000E-01   1.00800           0
      6821 MEMB     45       POPC     H5S      HAL2     0.900000E-01   1.00800           0
      6822 MEMB     45       POPC     C26      CTL2    -0.180000       12.0110           0
      6823 MEMB     45       POPC     H6R      HAL2     0.900000E-01   1.00800           0
      6824 MEMB     45       POPC     H6S      HAL2     0.900000E-01   1.00800           0
      6825 MEMB     45       POPC     C27      CTL2    -0.180000       12.0110           0
      6826 MEMB     45       POPC     H7R      HAL2     0.900000E-01   1.00800           0
      6827 MEMB     45       POPC     H7S      HAL2     0.900000E-01   1.00800           0
      6828 MEMB     45       POPC     C28      CTL2    -0.180000       12.0110           0
      6829 MEMB     45       POPC     H8R      HAL2     0.900000E-01   1.00800           0
      6830 MEMB     45       POPC     H8S      HAL2     0.900000E-01   1.00800           0
      6831 MEMB     45       POPC     C29      CEL1    -0.150000       12.0110           0
      6832 MEMB     45       POPC     H91      HEL1     0.150000       1.00800           0
      6833 MEMB     45       POPC     C210     CEL1    -0.150000       12.0110           0
      6834 MEMB     45       POPC     H101     HEL1     0.150000       1.00800           0
      6835 MEMB     45       POPC     C211     CTL2    -0.180000       12.0110           0
      6836 MEMB     45       POPC     H11R     HAL2     0.900000E-01   1.00800           0
      6837 MEMB     45       POPC     H11S     HAL2     0.900000E-01   1.00800           0
      6838 MEMB     45       POPC     C212     CTL2    -0.180000       12.0110           0
      6839 MEMB     45       POPC     H12R     HAL2     0.900000E-01   1.00800           0
      6840 MEMB     45       POPC     H12S     HAL2     0.900000E-01   1.00800           0
      6841 MEMB     45       POPC     C213     CTL2    -0.180000       12.0110           0
      6842 MEMB     45       POPC     H13R     HAL2     0.900000E-01   1.00800           0
      6843 MEMB     45       POPC     H13S     HAL2     0.900000E-01   1.00800           0
      6844 MEMB     45       POPC     C214     CTL2    -0.180000       12.0110           0
      6845 MEMB     45       POPC     H14R     HAL2     0.900000E-01   1.00800           0
      6846 MEMB     45       POPC     H14S     HAL2     0.900000E-01   1.00800           0
      6847 MEMB     45       POPC     C215     CTL2    -0.180000       12.0110           0
      6848 MEMB     45       POPC     H15R     HAL2     0.900000E-01   1.00800           0
      6849 MEMB     45       POPC     H15S     HAL2     0.900000E-01   1.00800           0
      6850 MEMB     45       POPC     C216     CTL2    -0.180000       12.0110           0
      6851 MEMB     45       POPC     H16R     HAL2     0.900000E-01   1.00800           0
      6852 MEMB     45       POPC     H16S     HAL2     0.900000E-01   1.00800           0
      6853 MEMB     45       POPC     C217     CTL2    -0.180000       12.0110           0
      6854 MEMB     45       POPC     H17R     HAL2     0.900000E-01   1.00800           0
      6855 MEMB     45       POPC     H17S     HAL2     0.900000E-01   1.00800           0
      6856 MEMB     45       POPC     C218     CTL3    -0.270000       12.0110           0
      6857 MEMB     45       POPC     H18R     HAL3     0.900000E-01   1.00800           0
      6858 MEMB     45       POPC     H18S     HAL3     0.900000E-01   1.00800           0
      6859 MEMB     45       POPC     H18T     HAL3     0.900000E-01   1.00800           0
      6860 MEMB     45       POPC     C33      CTL2    -0.180000       12.0110           0
      6861 MEMB     45       POPC     H3X      HAL2     0.900000E-01   1.00800           0
      6862 MEMB     45       POPC     H3Y      HAL2     0.900000E-01   1.00800           0
      6863 MEMB     45       POPC     C34      CTL2    -0.180000       12.0110           0
      6864 MEMB     45       POPC     H4X      HAL2     0.900000E-01   1.00800           0
      6865 MEMB     45       POPC     H4Y      HAL2     0.900000E-01   1.00800           0
      6866 MEMB     45       POPC     C35      CTL2    -0.180000       12.0110           0
      6867 MEMB     45       POPC     H5X      HAL2     0.900000E-01   1.00800           0
      6868 MEMB     45       POPC     H5Y      HAL2     0.900000E-01   1.00800           0
      6869 MEMB     45       POPC     C36      CTL2    -0.180000       12.0110           0
      6870 MEMB     45       POPC     H6X      HAL2     0.900000E-01   1.00800           0
      6871 MEMB     45       POPC     H6Y      HAL2     0.900000E-01   1.00800           0
      6872 MEMB     45       POPC     C37      CTL2    -0.180000       12.0110           0
      6873 MEMB     45       POPC     H7X      HAL2     0.900000E-01   1.00800           0
      6874 MEMB     45       POPC     H7Y      HAL2     0.900000E-01   1.00800           0
      6875 MEMB     45       POPC     C38      CTL2    -0.180000       12.0110           0
      6876 MEMB     45       POPC     H8X      HAL2     0.900000E-01   1.00800           0
      6877 MEMB     45       POPC     H8Y      HAL2     0.900000E-01   1.00800           0
      6878 MEMB     45       POPC     C39      CTL2    -0.180000       12.0110           0
      6879 MEMB     45       POPC     H9X      HAL2     0.900000E-01   1.00800           0
      6880 MEMB     45       POPC     H9Y      HAL2     0.900000E-01   1.00800           0
      6881 MEMB     45       POPC     C310     CTL2    -0.180000       12.0110           0
      6882 MEMB     45       POPC     H10X     HAL2     0.900000E-01   1.00800           0
      6883 MEMB     45       POPC     H10Y     HAL2     0.900000E-01   1.00800           0
      6884 MEMB     45       POPC     C311     CTL2    -0.180000       12.0110           0
      6885 MEMB     45       POPC     H11X     HAL2     0.900000E-01   1.00800           0
      6886 MEMB     45       POPC     H11Y     HAL2     0.900000E-01   1.00800           0
      6887 MEMB     45       POPC     C312     CTL2    -0.180000       12.0110           0
      6888 MEMB     45       POPC     H12X     HAL2     0.900000E-01   1.00800           0
      6889 MEMB     45       POPC     H12Y     HAL2     0.900000E-01   1.00800           0
      6890 MEMB     45       POPC     C313     CTL2    -0.180000       12.0110           0
      6891 MEMB     45       POPC     H13X     HAL2     0.900000E-01   1.00800           0
      6892 MEMB     45       POPC     H13Y     HAL2     0.900000E-01   1.00800           0
      6893 MEMB     45       POPC     C314     CTL2    -0.180000       12.0110           0
      6894 MEMB     45       POPC     H14X     HAL2     0.900000E-01   1.00800           0
      6895 MEMB     45       POPC     H14Y     HAL2     0.900000E-01   1.00800           0
      6896 MEMB     45       POPC     C315     CTL2    -0.180000       12.0110           0
      6897 MEMB     45       POPC     H15X     HAL2     0.900000E-01   1.00800           0
      6898 MEMB     45       POPC     H15Y     HAL2     0.900000E-01   1.00800           0
      6899 MEMB     45       POPC     C316     CTL3    -0.270000       12.0110           0
      6900 MEMB     45       POPC     H16X     HAL3     0.900000E-01   1.00800           0
      6901 MEMB     45       POPC     H16Y     HAL3     0.900000E-01   1.00800           0
      6902 MEMB     45       POPC     H16Z     HAL3     0.900000E-01   1.00800           0
      6903 MEMB     46       POPC     N        NTL     -0.600000       14.0070           0
      6904 MEMB     46       POPC     C12      CTL2    -0.100000       12.0110           0
      6905 MEMB     46       POPC     H12A     HL       0.250000       1.00800           0
      6906 MEMB     46       POPC     H12B     HL       0.250000       1.00800           0
      6907 MEMB     46       POPC     C13      CTL5    -0.350000       12.0110           0
      6908 MEMB     46       POPC     H13A     HL       0.250000       1.00800           0
      6909 MEMB     46       POPC     H13B     HL       0.250000       1.00800           0
      6910 MEMB     46       POPC     H13C     HL       0.250000       1.00800           0
      6911 MEMB     46       POPC     C14      CTL5    -0.350000       12.0110           0
      6912 MEMB     46       POPC     H14A     HL       0.250000       1.00800           0
      6913 MEMB     46       POPC     H14B     HL       0.250000       1.00800           0
      6914 MEMB     46       POPC     H14C     HL       0.250000       1.00800           0
      6915 MEMB     46       POPC     C15      CTL5    -0.350000       12.0110           0
      6916 MEMB     46       POPC     H15A     HL       0.250000       1.00800           0
      6917 MEMB     46       POPC     H15B     HL       0.250000       1.00800           0
      6918 MEMB     46       POPC     H15C     HL       0.250000       1.00800           0
      6919 MEMB     46       POPC     C11      CTL2    -0.800000E-01   12.0110           0
      6920 MEMB     46       POPC     H11A     HAL2     0.900000E-01   1.00800           0
      6921 MEMB     46       POPC     H11B     HAL2     0.900000E-01   1.00800           0
      6922 MEMB     46       POPC     P        PL        1.50000       30.9740           0
      6923 MEMB     46       POPC     O13      O2L     -0.780000       15.9994           0
      6924 MEMB     46       POPC     O14      O2L     -0.780000       15.9994           0
      6925 MEMB     46       POPC     O12      OSLP    -0.570000       15.9994           0
      6926 MEMB     46       POPC     O11      OSLP    -0.570000       15.9994           0
      6927 MEMB     46       POPC     C1       CTL2    -0.800000E-01   12.0110           0
      6928 MEMB     46       POPC     HA       HAL2     0.900000E-01   1.00800           0
      6929 MEMB     46       POPC     HB       HAL2     0.900000E-01   1.00800           0
      6930 MEMB     46       POPC     C2       CTL1     0.170000       12.0110           0
      6931 MEMB     46       POPC     HS       HAL1     0.900000E-01   1.00800           0
      6932 MEMB     46       POPC     O21      OSL     -0.490000       15.9994           0
      6933 MEMB     46       POPC     C21      CL       0.900000       12.0110           0
      6934 MEMB     46       POPC     O22      OBL     -0.630000       15.9994           0
      6935 MEMB     46       POPC     C22      CTL2    -0.220000       12.0110           0
      6936 MEMB     46       POPC     H2R      HAL2     0.900000E-01   1.00800           0
      6937 MEMB     46       POPC     H2S      HAL2     0.900000E-01   1.00800           0
      6938 MEMB     46       POPC     C3       CTL2     0.800000E-01   12.0110           0
      6939 MEMB     46       POPC     HX       HAL2     0.900000E-01   1.00800           0
      6940 MEMB     46       POPC     HY       HAL2     0.900000E-01   1.00800           0
      6941 MEMB     46       POPC     O31      OSL     -0.490000       15.9994           0
      6942 MEMB     46       POPC     C31      CL       0.900000       12.0110           0
      6943 MEMB     46       POPC     O32      OBL     -0.630000       15.9994           0
      6944 MEMB     46       POPC     C32      CTL2    -0.220000       12.0110           0
      6945 MEMB     46       POPC     H2X      HAL2     0.900000E-01   1.00800           0
      6946 MEMB     46       POPC     H2Y      HAL2     0.900000E-01   1.00800           0
      6947 MEMB     46       POPC     C23      CTL2    -0.180000       12.0110           0
      6948 MEMB     46       POPC     H3R      HAL2     0.900000E-01   1.00800           0
      6949 MEMB     46       POPC     H3S      HAL2     0.900000E-01   1.00800           0
      6950 MEMB     46       POPC     C24      CTL2    -0.180000       12.0110           0
      6951 MEMB     46       POPC     H4R      HAL2     0.900000E-01   1.00800           0
      6952 MEMB     46       POPC     H4S      HAL2     0.900000E-01   1.00800           0
      6953 MEMB     46       POPC     C25      CTL2    -0.180000       12.0110           0
      6954 MEMB     46       POPC     H5R      HAL2     0.900000E-01   1.00800           0
      6955 MEMB     46       POPC     H5S      HAL2     0.900000E-01   1.00800           0
      6956 MEMB     46       POPC     C26      CTL2    -0.180000       12.0110           0
      6957 MEMB     46       POPC     H6R      HAL2     0.900000E-01   1.00800           0
      6958 MEMB     46       POPC     H6S      HAL2     0.900000E-01   1.00800           0
      6959 MEMB     46       POPC     C27      CTL2    -0.180000       12.0110           0
      6960 MEMB     46       POPC     H7R      HAL2     0.900000E-01   1.00800           0
      6961 MEMB     46       POPC     H7S      HAL2     0.900000E-01   1.00800           0
      6962 MEMB     46       POPC     C28      CTL2    -0.180000       12.0110           0
      6963 MEMB     46       POPC     H8R      HAL2     0.900000E-01   1.00800           0
      6964 MEMB     46       POPC     H8S      HAL2     0.900000E-01   1.00800           0
      6965 MEMB     46       POPC     C29      CEL1    -0.150000       12.0110           0
      6966 MEMB     46       POPC     H91      HEL1     0.150000       1.00800           0
      6967 MEMB     46       POPC     C210     CEL1    -0.150000       12.0110           0
      6968 MEMB     46       POPC     H101     HEL1     0.150000       1.00800           0
      6969 MEMB     46       POPC     C211     CTL2    -0.180000       12.0110           0
      6970 MEMB     46       POPC     H11R     HAL2     0.900000E-01   1.00800           0
      6971 MEMB     46       POPC     H11S     HAL2     0.900000E-01   1.00800           0
      6972 MEMB     46       POPC     C212     CTL2    -0.180000       12.0110           0
      6973 MEMB     46       POPC     H12R     HAL2     0.900000E-01   1.00800           0
      6974 MEMB     46       POPC     H12S     HAL2     0.900000E-01   1.00800           0
      6975 MEMB     46       POPC     C213     CTL2    -0.180000       12.0110           0
      6976 MEMB     46       POPC     H13R     HAL2     0.900000E-01   1.00800           0
      6977 MEMB     46       POPC     H13S     HAL2     0.900000E-01   1.00800           0
      6978 MEMB     46       POPC     C214     CTL2    -0.180000       12.0110           0
      6979 MEMB     46       POPC     H14R     HAL2     0.900000E-01   1.00800           0
      6980 MEMB     46       POPC     H14S     HAL2     0.900000E-01   1.00800           0
      6981 MEMB     46       POPC     C215     CTL2    -0.180000       12.0110           0
      6982 MEMB     46       POPC     H15R     HAL2     0.900000E-01   1.00800           0
      6983 MEMB     46       POPC     H15S     HAL2     0.900000E-01   1.00800           0
      6984 MEMB     46       POPC     C216     CTL2    -0.180000       12.0110           0
      6985 MEMB     46       POPC     H16R     HAL2     0.900000E-01   1.00800           0
      6986 MEMB     46       POPC     H16S     HAL2     0.900000E-01   1.00800           0
      6987 MEMB     46       POPC     C217     CTL2    -0.180000       12.0110           0
      6988 MEMB     46       POPC     H17R     HAL2     0.900000E-01   1.00800           0
      6989 MEMB     46       POPC     H17S     HAL2     0.900000E-01   1.00800           0
      6990 MEMB     46       POPC     C218     CTL3    -0.270000       12.0110           0
      6991 MEMB     46       POPC     H18R     HAL3     0.900000E-01   1.00800           0
      6992 MEMB     46       POPC     H18S     HAL3     0.900000E-01   1.00800           0
      6993 MEMB     46       POPC     H18T     HAL3     0.900000E-01   1.00800           0
      6994 MEMB     46       POPC     C33      CTL2    -0.180000       12.0110           0
      6995 MEMB     46       POPC     H3X      HAL2     0.900000E-01   1.00800           0
      6996 MEMB     46       POPC     H3Y      HAL2     0.900000E-01   1.00800           0
      6997 MEMB     46       POPC     C34      CTL2    -0.180000       12.0110           0
      6998 MEMB     46       POPC     H4X      HAL2     0.900000E-01   1.00800           0
      6999 MEMB     46       POPC     H4Y      HAL2     0.900000E-01   1.00800           0
      7000 MEMB     46       POPC     C35      CTL2    -0.180000       12.0110           0
      7001 MEMB     46       POPC     H5X      HAL2     0.900000E-01   1.00800           0
      7002 MEMB     46       POPC     H5Y      HAL2     0.900000E-01   1.00800           0
      7003 MEMB     46       POPC     C36      CTL2    -0.180000       12.0110           0
      7004 MEMB     46       POPC     H6X      HAL2     0.900000E-01   1.00800           0
      7005 MEMB     46       POPC     H6Y      HAL2     0.900000E-01   1.00800           0
      7006 MEMB     46       POPC     C37      CTL2    -0.180000       12.0110           0
      7007 MEMB     46       POPC     H7X      HAL2     0.900000E-01   1.00800           0
      7008 MEMB     46       POPC     H7Y      HAL2     0.900000E-01   1.00800           0
      7009 MEMB     46       POPC     C38      CTL2    -0.180000       12.0110           0
      7010 MEMB     46       POPC     H8X      HAL2     0.900000E-01   1.00800           0
      7011 MEMB     46       POPC     H8Y      HAL2     0.900000E-01   1.00800           0
      7012 MEMB     46       POPC     C39      CTL2    -0.180000       12.0110           0
      7013 MEMB     46       POPC     H9X      HAL2     0.900000E-01   1.00800           0
      7014 MEMB     46       POPC     H9Y      HAL2     0.900000E-01   1.00800           0
      7015 MEMB     46       POPC     C310     CTL2    -0.180000       12.0110           0
      7016 MEMB     46       POPC     H10X     HAL2     0.900000E-01   1.00800           0
      7017 MEMB     46       POPC     H10Y     HAL2     0.900000E-01   1.00800           0
      7018 MEMB     46       POPC     C311     CTL2    -0.180000       12.0110           0
      7019 MEMB     46       POPC     H11X     HAL2     0.900000E-01   1.00800           0
      7020 MEMB     46       POPC     H11Y     HAL2     0.900000E-01   1.00800           0
      7021 MEMB     46       POPC     C312     CTL2    -0.180000       12.0110           0
      7022 MEMB     46       POPC     H12X     HAL2     0.900000E-01   1.00800           0
      7023 MEMB     46       POPC     H12Y     HAL2     0.900000E-01   1.00800           0
      7024 MEMB     46       POPC     C313     CTL2    -0.180000       12.0110           0
      7025 MEMB     46       POPC     H13X     HAL2     0.900000E-01   1.00800           0
      7026 MEMB     46       POPC     H13Y     HAL2     0.900000E-01   1.00800           0
      7027 MEMB     46       POPC     C314     CTL2    -0.180000       12.0110           0
      7028 MEMB     46       POPC     H14X     HAL2     0.900000E-01   1.00800           0
      7029 MEMB     46       POPC     H14Y     HAL2     0.900000E-01   1.00800           0
      7030 MEMB     46       POPC     C315     CTL2    -0.180000       12.0110           0
      7031 MEMB     46       POPC     H15X     HAL2     0.900000E-01   1.00800           0
      7032 MEMB     46       POPC     H15Y     HAL2     0.900000E-01   1.00800           0
      7033 MEMB     46       POPC     C316     CTL3    -0.270000       12.0110           0
      7034 MEMB     46       POPC     H16X     HAL3     0.900000E-01   1.00800           0
      7035 MEMB     46       POPC     H16Y     HAL3     0.900000E-01   1.00800           0
      7036 MEMB     46       POPC     H16Z     HAL3     0.900000E-01   1.00800           0
      7037 MEMB     47       POPC     N        NTL     -0.600000       14.0070           0
      7038 MEMB     47       POPC     C12      CTL2    -0.100000       12.0110           0
      7039 MEMB     47       POPC     H12A     HL       0.250000       1.00800           0
      7040 MEMB     47       POPC     H12B     HL       0.250000       1.00800           0
      7041 MEMB     47       POPC     C13      CTL5    -0.350000       12.0110           0
      7042 MEMB     47       POPC     H13A     HL       0.250000       1.00800           0
      7043 MEMB     47       POPC     H13B     HL       0.250000       1.00800           0
      7044 MEMB     47       POPC     H13C     HL       0.250000       1.00800           0
      7045 MEMB     47       POPC     C14      CTL5    -0.350000       12.0110           0
      7046 MEMB     47       POPC     H14A     HL       0.250000       1.00800           0
      7047 MEMB     47       POPC     H14B     HL       0.250000       1.00800           0
      7048 MEMB     47       POPC     H14C     HL       0.250000       1.00800           0
      7049 MEMB     47       POPC     C15      CTL5    -0.350000       12.0110           0
      7050 MEMB     47       POPC     H15A     HL       0.250000       1.00800           0
      7051 MEMB     47       POPC     H15B     HL       0.250000       1.00800           0
      7052 MEMB     47       POPC     H15C     HL       0.250000       1.00800           0
      7053 MEMB     47       POPC     C11      CTL2    -0.800000E-01   12.0110           0
      7054 MEMB     47       POPC     H11A     HAL2     0.900000E-01   1.00800           0
      7055 MEMB     47       POPC     H11B     HAL2     0.900000E-01   1.00800           0
      7056 MEMB     47       POPC     P        PL        1.50000       30.9740           0
      7057 MEMB     47       POPC     O13      O2L     -0.780000       15.9994           0
      7058 MEMB     47       POPC     O14      O2L     -0.780000       15.9994           0
      7059 MEMB     47       POPC     O12      OSLP    -0.570000       15.9994           0
      7060 MEMB     47       POPC     O11      OSLP    -0.570000       15.9994           0
      7061 MEMB     47       POPC     C1       CTL2    -0.800000E-01   12.0110           0
      7062 MEMB     47       POPC     HA       HAL2     0.900000E-01   1.00800           0
      7063 MEMB     47       POPC     HB       HAL2     0.900000E-01   1.00800           0
      7064 MEMB     47       POPC     C2       CTL1     0.170000       12.0110           0
      7065 MEMB     47       POPC     HS       HAL1     0.900000E-01   1.00800           0
      7066 MEMB     47       POPC     O21      OSL     -0.490000       15.9994           0
      7067 MEMB     47       POPC     C21      CL       0.900000       12.0110           0
      7068 MEMB     47       POPC     O22      OBL     -0.630000       15.9994           0
      7069 MEMB     47       POPC     C22      CTL2    -0.220000       12.0110           0
      7070 MEMB     47       POPC     H2R      HAL2     0.900000E-01   1.00800           0
      7071 MEMB     47       POPC     H2S      HAL2     0.900000E-01   1.00800           0
      7072 MEMB     47       POPC     C3       CTL2     0.800000E-01   12.0110           0
      7073 MEMB     47       POPC     HX       HAL2     0.900000E-01   1.00800           0
      7074 MEMB     47       POPC     HY       HAL2     0.900000E-01   1.00800           0
      7075 MEMB     47       POPC     O31      OSL     -0.490000       15.9994           0
      7076 MEMB     47       POPC     C31      CL       0.900000       12.0110           0
      7077 MEMB     47       POPC     O32      OBL     -0.630000       15.9994           0
      7078 MEMB     47       POPC     C32      CTL2    -0.220000       12.0110           0
      7079 MEMB     47       POPC     H2X      HAL2     0.900000E-01   1.00800           0
      7080 MEMB     47       POPC     H2Y      HAL2     0.900000E-01   1.00800           0
      7081 MEMB     47       POPC     C23      CTL2    -0.180000       12.0110           0
      7082 MEMB     47       POPC     H3R      HAL2     0.900000E-01   1.00800           0
      7083 MEMB     47       POPC     H3S      HAL2     0.900000E-01   1.00800           0
      7084 MEMB     47       POPC     C24      CTL2    -0.180000       12.0110           0
      7085 MEMB     47       POPC     H4R      HAL2     0.900000E-01   1.00800           0
      7086 MEMB     47       POPC     H4S      HAL2     0.900000E-01   1.00800           0
      7087 MEMB     47       POPC     C25      CTL2    -0.180000       12.0110           0
      7088 MEMB     47       POPC     H5R      HAL2     0.900000E-01   1.00800           0
      7089 MEMB     47       POPC     H5S      HAL2     0.900000E-01   1.00800           0
      7090 MEMB     47       POPC     C26      CTL2    -0.180000       12.0110           0
      7091 MEMB     47       POPC     H6R      HAL2     0.900000E-01   1.00800           0
      7092 MEMB     47       POPC     H6S      HAL2     0.900000E-01   1.00800           0
      7093 MEMB     47       POPC     C27      CTL2    -0.180000       12.0110           0
      7094 MEMB     47       POPC     H7R      HAL2     0.900000E-01   1.00800           0
      7095 MEMB     47       POPC     H7S      HAL2     0.900000E-01   1.00800           0
      7096 MEMB     47       POPC     C28      CTL2    -0.180000       12.0110           0
      7097 MEMB     47       POPC     H8R      HAL2     0.900000E-01   1.00800           0
      7098 MEMB     47       POPC     H8S      HAL2     0.900000E-01   1.00800           0
      7099 MEMB     47       POPC     C29      CEL1    -0.150000       12.0110           0
      7100 MEMB     47       POPC     H91      HEL1     0.150000       1.00800           0
      7101 MEMB     47       POPC     C210     CEL1    -0.150000       12.0110           0
      7102 MEMB     47       POPC     H101     HEL1     0.150000       1.00800           0
      7103 MEMB     47       POPC     C211     CTL2    -0.180000       12.0110           0
      7104 MEMB     47       POPC     H11R     HAL2     0.900000E-01   1.00800           0
      7105 MEMB     47       POPC     H11S     HAL2     0.900000E-01   1.00800           0
      7106 MEMB     47       POPC     C212     CTL2    -0.180000       12.0110           0
      7107 MEMB     47       POPC     H12R     HAL2     0.900000E-01   1.00800           0
      7108 MEMB     47       POPC     H12S     HAL2     0.900000E-01   1.00800           0
      7109 MEMB     47       POPC     C213     CTL2    -0.180000       12.0110           0
      7110 MEMB     47       POPC     H13R     HAL2     0.900000E-01   1.00800           0
      7111 MEMB     47       POPC     H13S     HAL2     0.900000E-01   1.00800           0
      7112 MEMB     47       POPC     C214     CTL2    -0.180000       12.0110           0
      7113 MEMB     47       POPC     H14R     HAL2     0.900000E-01   1.00800           0
      7114 MEMB     47       POPC     H14S     HAL2     0.900000E-01   1.00800           0
      7115 MEMB     47       POPC     C215     CTL2    -0.180000       12.0110           0
      7116 MEMB     47       POPC     H15R     HAL2     0.900000E-01   1.00800           0
      7117 MEMB     47       POPC     H15S     HAL2     0.900000E-01   1.00800           0
      7118 MEMB     47       POPC     C216     CTL2    -0.180000       12.0110           0
      7119 MEMB     47       POPC     H16R     HAL2     0.900000E-01   1.00800           0
      7120 MEMB     47       POPC     H16S     HAL2     0.900000E-01   1.00800           0
      7121 MEMB     47       POPC     C217     CTL2    -0.180000       12.0110           0
      7122 MEMB     47       POPC     H17R     HAL2     0.900000E-01   1.00800           0
      7123 MEMB     47       POPC     H17S     HAL2     0.900000E-01   1.00800           0
      7124 MEMB     47       POPC     C218     CTL3    -0.270000       12.0110           0
      7125 MEMB     47       POPC     H18R     HAL3     0.900000E-01   1.00800           0
      7126 MEMB     47       POPC     H18S     HAL3     0.900000E-01   1.00800           0
      7127 MEMB     47       POPC     H18T     HAL3     0.900000E-01   1.00800           0
      7128 MEMB     47       POPC     C33      CTL2    -0.180000       12.0110           0
      7129 MEMB     47       POPC     H3X      HAL2     0.900000E-01   1.00800           0
      7130 MEMB     47       POPC     H3Y      HAL2     0.900000E-01   1.00800           0
      7131 MEMB     47       POPC     C34      CTL2    -0.180000       12.0110           0
      7132 MEMB     47       POPC     H4X      HAL2     0.900000E-01   1.00800           0
      7133 MEMB     47       POPC     H4Y      HAL2     0.900000E-01   1.00800           0
      7134 MEMB     47       POPC     C35      CTL2    -0.180000       12.0110           0
      7135 MEMB     47       POPC     H5X      HAL2     0.900000E-01   1.00800           0
      7136 MEMB     47       POPC     H5Y      HAL2     0.900000E-01   1.00800           0
      7137 MEMB     47       POPC     C36      CTL2    -0.180000       12.0110           0
      7138 MEMB     47       POPC     H6X      HAL2     0.900000E-01   1.00800           0
      7139 MEMB     47       POPC     H6Y      HAL2     0.900000E-01   1.00800           0
      7140 MEMB     47       POPC     C37      CTL2    -0.180000       12.0110           0
      7141 MEMB     47       POPC     H7X      HAL2     0.900000E-01   1.00800           0
      7142 MEMB     47       POPC     H7Y      HAL2     0.900000E-01   1.00800           0
      7143 MEMB     47       POPC     C38      CTL2    -0.180000       12.0110           0
      7144 MEMB     47       POPC     H8X      HAL2     0.900000E-01   1.00800           0
      7145 MEMB     47       POPC     H8Y      HAL2     0.900000E-01   1.00800           0
      7146 MEMB     47       POPC     C39      CTL2    -0.180000       12.0110           0
      7147 MEMB     47       POPC     H9X      HAL2     0.900000E-01   1.00800           0
      7148 MEMB     47       POPC     H9Y      HAL2     0.900000E-01   1.00800           0
      7149 MEMB     47       POPC     C310     CTL2    -0.180000       12.0110           0
      7150 MEMB     47       POPC     H10X     HAL2     0.900000E-01   1.00800           0
      7151 MEMB     47       POPC     H10Y     HAL2     0.900000E-01   1.00800           0
      7152 MEMB     47       POPC     C311     CTL2    -0.180000       12.0110           0
      7153 MEMB     47       POPC     H11X     HAL2     0.900000E-01   1.00800           0
      7154 MEMB     47       POPC     H11Y     HAL2     0.900000E-01   1.00800           0
      7155 MEMB     47       POPC     C312     CTL2    -0.180000       12.0110           0
      7156 MEMB     47       POPC     H12X     HAL2     0.900000E-01   1.00800           0
      7157 MEMB     47       POPC     H12Y     HAL2     0.900000E-01   1.00800           0
      7158 MEMB     47       POPC     C313     CTL2    -0.180000       12.0110           0
      7159 MEMB     47       POPC     H13X     HAL2     0.900000E-01   1.00800           0
      7160 MEMB     47       POPC     H13Y     HAL2     0.900000E-01   1.00800           0
      7161 MEMB     47       POPC     C314     CTL2    -0.180000       12.0110           0
      7162 MEMB     47       POPC     H14X     HAL2     0.900000E-01   1.00800           0
      7163 MEMB     47       POPC     H14Y     HAL2     0.900000E-01   1.00800           0
      7164 MEMB     47       POPC     C315     CTL2    -0.180000       12.0110           0
      7165 MEMB     47       POPC     H15X     HAL2     0.900000E-01   1.00800           0
      7166 MEMB     47       POPC     H15Y     HAL2     0.900000E-01   1.00800           0
      7167 MEMB     47       POPC     C316     CTL3    -0.270000       12.0110           0
      7168 MEMB     47       POPC     H16X     HAL3     0.900000E-01   1.00800           0
      7169 MEMB     47       POPC     H16Y     HAL3     0.900000E-01   1.00800           0
      7170 MEMB     47       POPC     H16Z     HAL3     0.900000E-01   1.00800           0
      7171 MEMB     48       POPC     N        NTL     -0.600000       14.0070           0
      7172 MEMB     48       POPC     C12      CTL2    -0.100000       12.0110           0
      7173 MEMB     48       POPC     H12A     HL       0.250000       1.00800           0
      7174 MEMB     48       POPC     H12B     HL       0.250000       1.00800           0
      7175 MEMB     48       POPC     C13      CTL5    -0.350000       12.0110           0
      7176 MEMB     48       POPC     H13A     HL       0.250000       1.00800           0
      7177 MEMB     48       POPC     H13B     HL       0.250000       1.00800           0
      7178 MEMB     48       POPC     H13C     HL       0.250000       1.00800           0
      7179 MEMB     48       POPC     C14      CTL5    -0.350000       12.0110           0
      7180 MEMB     48       POPC     H14A     HL       0.250000       1.00800           0
      7181 MEMB     48       POPC     H14B     HL       0.250000       1.00800           0
      7182 MEMB     48       POPC     H14C     HL       0.250000       1.00800           0
      7183 MEMB     48       POPC     C15      CTL5    -0.350000       12.0110           0
      7184 MEMB     48       POPC     H15A     HL       0.250000       1.00800           0
      7185 MEMB     48       POPC     H15B     HL       0.250000       1.00800           0
      7186 MEMB     48       POPC     H15C     HL       0.250000       1.00800           0
      7187 MEMB     48       POPC     C11      CTL2    -0.800000E-01   12.0110           0
      7188 MEMB     48       POPC     H11A     HAL2     0.900000E-01   1.00800           0
      7189 MEMB     48       POPC     H11B     HAL2     0.900000E-01   1.00800           0
      7190 MEMB     48       POPC     P        PL        1.50000       30.9740           0
      7191 MEMB     48       POPC     O13      O2L     -0.780000       15.9994           0
      7192 MEMB     48       POPC     O14      O2L     -0.780000       15.9994           0
      7193 MEMB     48       POPC     O12      OSLP    -0.570000       15.9994           0
      7194 MEMB     48       POPC     O11      OSLP    -0.570000       15.9994           0
      7195 MEMB     48       POPC     C1       CTL2    -0.800000E-01   12.0110           0
      7196 MEMB     48       POPC     HA       HAL2     0.900000E-01   1.00800           0
      7197 MEMB     48       POPC     HB       HAL2     0.900000E-01   1.00800           0
      7198 MEMB     48       POPC     C2       CTL1     0.170000       12.0110           0
      7199 MEMB     48       POPC     HS       HAL1     0.900000E-01   1.00800           0
      7200 MEMB     48       POPC     O21      OSL     -0.490000       15.9994           0
      7201 MEMB     48       POPC     C21      CL       0.900000       12.0110           0
      7202 MEMB     48       POPC     O22      OBL     -0.630000       15.9994           0
      7203 MEMB     48       POPC     C22      CTL2    -0.220000       12.0110           0
      7204 MEMB     48       POPC     H2R      HAL2     0.900000E-01   1.00800           0
      7205 MEMB     48       POPC     H2S      HAL2     0.900000E-01   1.00800           0
      7206 MEMB     48       POPC     C3       CTL2     0.800000E-01   12.0110           0
      7207 MEMB     48       POPC     HX       HAL2     0.900000E-01   1.00800           0
      7208 MEMB     48       POPC     HY       HAL2     0.900000E-01   1.00800           0
      7209 MEMB     48       POPC     O31      OSL     -0.490000       15.9994           0
      7210 MEMB     48       POPC     C31      CL       0.900000       12.0110           0
      7211 MEMB     48       POPC     O32      OBL     -0.630000       15.9994           0
      7212 MEMB     48       POPC     C32      CTL2    -0.220000       12.0110           0
      7213 MEMB     48       POPC     H2X      HAL2     0.900000E-01   1.00800           0
      7214 MEMB     48       POPC     H2Y      HAL2     0.900000E-01   1.00800           0
      7215 MEMB     48       POPC     C23      CTL2    -0.180000       12.0110           0
      7216 MEMB     48       POPC     H3R      HAL2     0.900000E-01   1.00800           0
      7217 MEMB     48       POPC     H3S      HAL2     0.900000E-01   1.00800           0
      7218 MEMB     48       POPC     C24      CTL2    -0.180000       12.0110           0
      7219 MEMB     48       POPC     H4R      HAL2     0.900000E-01   1.00800           0
      7220 MEMB     48       POPC     H4S      HAL2     0.900000E-01   1.00800           0
      7221 MEMB     48       POPC     C25      CTL2    -0.180000       12.0110           0
      7222 MEMB     48       POPC     H5R      HAL2     0.900000E-01   1.00800           0
      7223 MEMB     48       POPC     H5S      HAL2     0.900000E-01   1.00800           0
      7224 MEMB     48       POPC     C26      CTL2    -0.180000       12.0110           0
      7225 MEMB     48       POPC     H6R      HAL2     0.900000E-01   1.00800           0
      7226 MEMB     48       POPC     H6S      HAL2     0.900000E-01   1.00800           0
      7227 MEMB     48       POPC     C27      CTL2    -0.180000       12.0110           0
      7228 MEMB     48       POPC     H7R      HAL2     0.900000E-01   1.00800           0
      7229 MEMB     48       POPC     H7S      HAL2     0.900000E-01   1.00800           0
      7230 MEMB     48       POPC     C28      CTL2    -0.180000       12.0110           0
      7231 MEMB     48       POPC     H8R      HAL2     0.900000E-01   1.00800           0
      7232 MEMB     48       POPC     H8S      HAL2     0.900000E-01   1.00800           0
      7233 MEMB     48       POPC     C29      CEL1    -0.150000       12.0110           0
      7234 MEMB     48       POPC     H91      HEL1     0.150000       1.00800           0
      7235 MEMB     48       POPC     C210     CEL1    -0.150000       12.0110           0
      7236 MEMB     48       POPC     H101     HEL1     0.150000       1.00800           0
      7237 MEMB     48       POPC     C211     CTL2    -0.180000       12.0110           0
      7238 MEMB     48       POPC     H11R     HAL2     0.900000E-01   1.00800           0
      7239 MEMB     48       POPC     H11S     HAL2     0.900000E-01   1.00800           0
      7240 MEMB     48       POPC     C212     CTL2    -0.180000       12.0110           0
      7241 MEMB     48       POPC     H12R     HAL2     0.900000E-01   1.00800           0
      7242 MEMB     48       POPC     H12S     HAL2     0.900000E-01   1.00800           0
      7243 MEMB     48       POPC     C213     CTL2    -0.180000       12.0110           0
      7244 MEMB     48       POPC     H13R     HAL2     0.900000E-01   1.00800           0
      7245 MEMB     48       POPC     H13S     HAL2     0.900000E-01   1.00800           0
      7246 MEMB     48       POPC     C214     CTL2    -0.180000       12.0110           0
      7247 MEMB     48       POPC     H14R     HAL2     0.900000E-01   1.00800           0
      7248 MEMB     48       POPC     H14S     HAL2     0.900000E-01   1.00800           0
      7249 MEMB     48       POPC     C215     CTL2    -0.180000       12.0110           0
      7250 MEMB     48       POPC     H15R     HAL2     0.900000E-01   1.00800           0
      7251 MEMB     48       POPC     H15S     HAL2     0.900000E-01   1.00800           0
      7252 MEMB     48       POPC     C216     CTL2    -0.180000       12.0110           0
      7253 MEMB     48       POPC     H16R     HAL2     0.900000E-01   1.00800           0
      7254 MEMB     48       POPC     H16S     HAL2     0.900000E-01   1.00800           0
      7255 MEMB     48       POPC     C217     CTL2    -0.180000       12.0110           0
      7256 MEMB     48       POPC     H17R     HAL2     0.900000E-01   1.00800           0
      7257 MEMB     48       POPC     H17S     HAL2     0.900000E-01   1.00800           0
      7258 MEMB     48       POPC     C218     CTL3    -0.270000       12.0110           0
      7259 MEMB     48       POPC     H18R     HAL3     0.900000E-01   1.00800           0
      7260 MEMB     48       POPC     H18S     HAL3     0.900000E-01   1.00800           0
      7261 MEMB     48       POPC     H18T     HAL3     0.900000E-01   1.00800           0
      7262 MEMB     48       POPC     C33      CTL2    -0.180000       12.0110           0
      7263 MEMB     48       POPC     H3X      HAL2     0.900000E-01   1.00800           0
      7264 MEMB     48       POPC     H3Y      HAL2     0.900000E-01   1.00800           0
      7265 MEMB     48       POPC     C34      CTL2    -0.180000       12.0110           0
      7266 MEMB     48       POPC     H4X      HAL2     0.900000E-01   1.00800           0
      7267 MEMB     48       POPC     H4Y      HAL2     0.900000E-01   1.00800           0
      7268 MEMB     48       POPC     C35      CTL2    -0.180000       12.0110           0
      7269 MEMB     48       POPC     H5X      HAL2     0.900000E-01   1.00800           0
      7270 MEMB     48       POPC     H5Y      HAL2     0.900000E-01   1.00800           0
      7271 MEMB     48       POPC     C36      CTL2    -0.180000       12.0110           0
      7272 MEMB     48       POPC     H6X      HAL2     0.900000E-01   1.00800           0
      7273 MEMB     48       POPC     H6Y      HAL2     0.900000E-01   1.00800           0
      7274 MEMB     48       POPC     C37      CTL2    -0.180000       12.0110           0
      7275 MEMB     48       POPC     H7X      HAL2     0.900000E-01   1.00800           0
      7276 MEMB     48       POPC     H7Y      HAL2     0.900000E-01   1.00800           0
      7277 MEMB     48       POPC     C38      CTL2    -0.180000       12.0110           0
      7278 MEMB     48       POPC     H8X      HAL2     0.900000E-01   1.00800           0
      7279 MEMB     48       POPC     H8Y      HAL2     0.900000E-01   1.00800           0
      7280 MEMB     48       POPC     C39      CTL2    -0.180000       12.0110           0
      7281 MEMB     48       POPC     H9X      HAL2     0.900000E-01   1.00800           0
      7282 MEMB     48       POPC     H9Y      HAL2     0.900000E-01   1.00800           0
      7283 MEMB     48       POPC     C310     CTL2    -0.180000       12.0110           0
      7284 MEMB     48       POPC     H10X     HAL2     0.900000E-01   1.00800           0
      7285 MEMB     48       POPC     H10Y     HAL2     0.900000E-01   1.00800           0
      7286 MEMB     48       POPC     C311     CTL2    -0.180000       12.0110           0
      7287 MEMB     48       POPC     H11X     HAL2     0.900000E-01   1.00800           0
      7288 MEMB     48       POPC     H11Y     HAL2     0.900000E-01   1.00800           0
      7289 MEMB     48       POPC     C312     CTL2    -0.180000       12.0110           0
      7290 MEMB     48       POPC     H12X     HAL2     0.900000E-01   1.00800           0
      7291 MEMB     48       POPC     H12Y     HAL2     0.900000E-01   1.00800           0
      7292 MEMB     48       POPC     C313     CTL2    -0.180000       12.0110           0
      7293 MEMB     48       POPC     H13X     HAL2     0.900000E-01   1.00800           0
      7294 MEMB     48       POPC     H13Y     HAL2     0.900000E-01   1.00800           0
      7295 MEMB     48       POPC     C314     CTL2    -0.180000       12.0110           0
      7296 MEMB     48       POPC     H14X     HAL2     0.900000E-01   1.00800           0
      7297 MEMB     48       POPC     H14Y     HAL2     0.900000E-01   1.00800           0
      7298 MEMB     48       POPC     C315     CTL2    -0.180000       12.0110           0
      7299 MEMB     48       POPC     H15X     HAL2     0.900000E-01   1.00800           0
      7300 MEMB     48       POPC     H15Y     HAL2     0.900000E-01   1.00800           0
      7301 MEMB     48       POPC     C316     CTL3    -0.270000       12.0110           0
      7302 MEMB     48       POPC     H16X     HAL3     0.900000E-01   1.00800           0
      7303 MEMB     48       POPC     H16Y     HAL3     0.900000E-01   1.00800           0
      7304 MEMB     48       POPC     H16Z     HAL3     0.900000E-01   1.00800           0
      7305 MEMB     49       POPC     N        NTL     -0.600000       14.0070           0
      7306 MEMB     49       POPC     C12      CTL2    -0.100000       12.0110           0
      7307 MEMB     49       POPC     H12A     HL       0.250000       1.00800           0
      7308 MEMB     49       POPC     H12B     HL       0.250000       1.00800           0
      7309 MEMB     49       POPC     C13      CTL5    -0.350000       12.0110           0
      7310 MEMB     49       POPC     H13A     HL       0.250000       1.00800           0
      7311 MEMB     49       POPC     H13B     HL       0.250000       1.00800           0
      7312 MEMB     49       POPC     H13C     HL       0.250000       1.00800           0
      7313 MEMB     49       POPC     C14      CTL5    -0.350000       12.0110           0
      7314 MEMB     49       POPC     H14A     HL       0.250000       1.00800           0
      7315 MEMB     49       POPC     H14B     HL       0.250000       1.00800           0
      7316 MEMB     49       POPC     H14C     HL       0.250000       1.00800           0
      7317 MEMB     49       POPC     C15      CTL5    -0.350000       12.0110           0
      7318 MEMB     49       POPC     H15A     HL       0.250000       1.00800           0
      7319 MEMB     49       POPC     H15B     HL       0.250000       1.00800           0
      7320 MEMB     49       POPC     H15C     HL       0.250000       1.00800           0
      7321 MEMB     49       POPC     C11      CTL2    -0.800000E-01   12.0110           0
      7322 MEMB     49       POPC     H11A     HAL2     0.900000E-01   1.00800           0
      7323 MEMB     49       POPC     H11B     HAL2     0.900000E-01   1.00800           0
      7324 MEMB     49       POPC     P        PL        1.50000       30.9740           0
      7325 MEMB     49       POPC     O13      O2L     -0.780000       15.9994           0
      7326 MEMB     49       POPC     O14      O2L     -0.780000       15.9994           0
      7327 MEMB     49       POPC     O12      OSLP    -0.570000       15.9994           0
      7328 MEMB     49       POPC     O11      OSLP    -0.570000       15.9994           0
      7329 MEMB     49       POPC     C1       CTL2    -0.800000E-01   12.0110           0
      7330 MEMB     49       POPC     HA       HAL2     0.900000E-01   1.00800           0
      7331 MEMB     49       POPC     HB       HAL2     0.900000E-01   1.00800           0
      7332 MEMB     49       POPC     C2       CTL1     0.170000       12.0110           0
      7333 MEMB     49       POPC     HS       HAL1     0.900000E-01   1.00800           0
      7334 MEMB     49       POPC     O21      OSL     -0.490000       15.9994           0
      7335 MEMB     49       POPC     C21      CL       0.900000       12.0110           0
      7336 MEMB     49       POPC     O22      OBL     -0.630000       15.9994           0
      7337 MEMB     49       POPC     C22      CTL2    -0.220000       12.0110           0
      7338 MEMB     49       POPC     H2R      HAL2     0.900000E-01   1.00800           0
      7339 MEMB     49       POPC     H2S      HAL2     0.900000E-01   1.00800           0
      7340 MEMB     49       POPC     C3       CTL2     0.800000E-01   12.0110           0
      7341 MEMB     49       POPC     HX       HAL2     0.900000E-01   1.00800           0
      7342 MEMB     49       POPC     HY       HAL2     0.900000E-01   1.00800           0
      7343 MEMB     49       POPC     O31      OSL     -0.490000       15.9994           0
      7344 MEMB     49       POPC     C31      CL       0.900000       12.0110           0
      7345 MEMB     49       POPC     O32      OBL     -0.630000       15.9994           0
      7346 MEMB     49       POPC     C32      CTL2    -0.220000       12.0110           0
      7347 MEMB     49       POPC     H2X      HAL2     0.900000E-01   1.00800           0
      7348 MEMB     49       POPC     H2Y      HAL2     0.900000E-01   1.00800           0
      7349 MEMB     49       POPC     C23      CTL2    -0.180000       12.0110           0
      7350 MEMB     49       POPC     H3R      HAL2     0.900000E-01   1.00800           0
      7351 MEMB     49       POPC     H3S      HAL2     0.900000E-01   1.00800           0
      7352 MEMB     49       POPC     C24      CTL2    -0.180000       12.0110           0
      7353 MEMB     49       POPC     H4R      HAL2     0.900000E-01   1.00800           0
      7354 MEMB     49       POPC     H4S      HAL2     0.900000E-01   1.00800           0
      7355 MEMB     49       POPC     C25      CTL2    -0.180000       12.0110           0
      7356 MEMB     49       POPC     H5R      HAL2     0.900000E-01   1.00800           0
      7357 MEMB     49       POPC     H5S      HAL2     0.900000E-01   1.00800           0
      7358 MEMB     49       POPC     C26      CTL2    -0.180000       12.0110           0
      7359 MEMB     49       POPC     H6R      HAL2     0.900000E-01   1.00800           0
      7360 MEMB     49       POPC     H6S      HAL2     0.900000E-01   1.00800           0
      7361 MEMB     49       POPC     C27      CTL2    -0.180000       12.0110           0
      7362 MEMB     49       POPC     H7R      HAL2     0.900000E-01   1.00800           0
      7363 MEMB     49       POPC     H7S      HAL2     0.900000E-01   1.00800           0
      7364 MEMB     49       POPC     C28      CTL2    -0.180000       12.0110           0
      7365 MEMB     49       POPC     H8R      HAL2     0.900000E-01   1.00800           0
      7366 MEMB     49       POPC     H8S      HAL2     0.900000E-01   1.00800           0
      7367 MEMB     49       POPC     C29      CEL1    -0.150000       12.0110           0
      7368 MEMB     49       POPC     H91      HEL1     0.150000       1.00800           0
      7369 MEMB     49       POPC     C210     CEL1    -0.150000       12.0110           0
      7370 MEMB     49       POPC     H101     HEL1     0.150000       1.00800           0
      7371 MEMB     49       POPC     C211     CTL2    -0.180000       12.0110           0
      7372 MEMB     49       POPC     H11R     HAL2     0.900000E-01   1.00800           0
      7373 MEMB     49       POPC     H11S     HAL2     0.900000E-01   1.00800           0
      7374 MEMB     49       POPC     C212     CTL2    -0.180000       12.0110           0
      7375 MEMB     49       POPC     H12R     HAL2     0.900000E-01   1.00800           0
      7376 MEMB     49       POPC     H12S     HAL2     0.900000E-01   1.00800           0
      7377 MEMB     49       POPC     C213     CTL2    -0.180000       12.0110           0
      7378 MEMB     49       POPC     H13R     HAL2     0.900000E-01   1.00800           0
      7379 MEMB     49       POPC     H13S     HAL2     0.900000E-01   1.00800           0
      7380 MEMB     49       POPC     C214     CTL2    -0.180000       12.0110           0
      7381 MEMB     49       POPC     H14R     HAL2     0.900000E-01   1.00800           0
      7382 MEMB     49       POPC     H14S     HAL2     0.900000E-01   1.00800           0
      7383 MEMB     49       POPC     C215     CTL2    -0.180000       12.0110           0
      7384 MEMB     49       POPC     H15R     HAL2     0.900000E-01   1.00800           0
      7385 MEMB     49       POPC     H15S     HAL2     0.900000E-01   1.00800           0
      7386 MEMB     49       POPC     C216     CTL2    -0.180000       12.0110           0
      7387 MEMB     49       POPC     H16R     HAL2     0.900000E-01   1.00800           0
      7388 MEMB     49       POPC     H16S     HAL2     0.900000E-01   1.00800           0
      7389 MEMB     49       POPC     C217     CTL2    -0.180000       12.0110           0
      7390 MEMB     49       POPC     H17R     HAL2     0.900000E-01   1.00800           0
      7391 MEMB     49       POPC     H17S     HAL2     0.900000E-01   1.00800           0
      7392 MEMB     49       POPC     C218     CTL3    -0.270000       12.0110           0
      7393 MEMB     49       POPC     H18R     HAL3     0.900000E-01   1.00800           0
      7394 MEMB     49       POPC     H18S     HAL3     0.900000E-01   1.00800           0
      7395 MEMB     49       POPC     H18T     HAL3     0.900000E-01   1.00800           0
      7396 MEMB     49       POPC     C33      CTL2    -0.180000       12.0110           0
      7397 MEMB     49       POPC     H3X      HAL2     0.900000E-01   1.00800           0
      7398 MEMB     49       POPC     H3Y      HAL2     0.900000E-01   1.00800           0
      7399 MEMB     49       POPC     C34      CTL2    -0.180000       12.0110           0
      7400 MEMB     49       POPC     H4X      HAL2     0.900000E-01   1.00800           0
      7401 MEMB     49       POPC     H4Y      HAL2     0.900000E-01   1.00800           0
      7402 MEMB     49       POPC     C35      CTL2    -0.180000       12.0110           0
      7403 MEMB     49       POPC     H5X      HAL2     0.900000E-01   1.00800           0
      7404 MEMB     49       POPC     H5Y      HAL2     0.900000E-01   1.00800           0
      7405 MEMB     49       POPC     C36      CTL2    -0.180000       12.0110           0
      7406 MEMB     49       POPC     H6X      HAL2     0.900000E-01   1.00800           0
      7407 MEMB     49       POPC     H6Y      HAL2     0.900000E-01   1.00800           0
      7408 MEMB     49       POPC     C37      CTL2    -0.180000       12.0110           0
      7409 MEMB     49       POPC     H7X      HAL2     0.900000E-01   1.00800           0
      7410 MEMB     49       POPC     H7Y      HAL2     0.900000E-01   1.00800           0
      7411 MEMB     49       POPC     C38      CTL2    -0.180000       12.0110           0
      7412 MEMB     49       POPC     H8X      HAL2     0.900000E-01   1.00800           0
      7413 MEMB     49       POPC     H8Y      HAL2     0.900000E-01   1.00800           0
      7414 MEMB     49       POPC     C39      CTL2    -0.180000       12.0110           0
      7415 MEMB     49       POPC     H9X      HAL2     0.900000E-01   1.00800           0
      7416 MEMB     49       POPC     H9Y      HAL2     0.900000E-01   1.00800           0
      7417 MEMB     49       POPC     C310     CTL2    -0.180000       12.0110           0
      7418 MEMB     49       POPC     H10X     HAL2     0.900000E-01   1.00800           0
      7419 MEMB     49       POPC     H10Y     HAL2     0.900000E-01   1.00800           0
      7420 MEMB     49       POPC     C311     CTL2    -0.180000       12.0110           0
      7421 MEMB     49       POPC     H11X     HAL2     0.900000E-01   1.00800           0
      7422 MEMB     49       POPC     H11Y     HAL2     0.900000E-01   1.00800           0
      7423 MEMB     49       POPC     C312     CTL2    -0.180000       12.0110           0
      7424 MEMB     49       POPC     H12X     HAL2     0.900000E-01   1.00800           0
      7425 MEMB     49       POPC     H12Y     HAL2     0.900000E-01   1.00800           0
      7426 MEMB     49       POPC     C313     CTL2    -0.180000       12.0110           0
      7427 MEMB     49       POPC     H13X     HAL2     0.900000E-01   1.00800           0
      7428 MEMB     49       POPC     H13Y     HAL2     0.900000E-01   1.00800           0
      7429 MEMB     49       POPC     C314     CTL2    -0.180000       12.0110           0
      7430 MEMB     49       POPC     H14X     HAL2     0.900000E-01   1.00800           0
      7431 MEMB     49       POPC     H14Y     HAL2     0.900000E-01   1.00800           0
      7432 MEMB     49       POPC     C315     CTL2    -0.180000       12.0110           0
      7433 MEMB     49       POPC     H15X     HAL2     0.900000E-01   1.00800           0
      7434 MEMB     49       POPC     H15Y     HAL2     0.900000E-01   1.00800           0
      7435 MEMB     49       POPC     C316     CTL3    -0.270000       12.0110           0
      7436 MEMB     49       POPC     H16X     HAL3     0.900000E-01   1.00800           0
      7437 MEMB     49       POPC     H16Y     HAL3     0.900000E-01   1.00800           0
      7438 MEMB     49       POPC     H16Z     HAL3     0.900000E-01   1.00800           0
      7439 MEMB     50       POPC     N        NTL     -0.600000       14.0070           0
      7440 MEMB     50       POPC     C12      CTL2    -0.100000       12.0110           0
      7441 MEMB     50       POPC     H12A     HL       0.250000       1.00800           0
      7442 MEMB     50       POPC     H12B     HL       0.250000       1.00800           0
      7443 MEMB     50       POPC     C13      CTL5    -0.350000       12.0110           0
      7444 MEMB     50       POPC     H13A     HL       0.250000       1.00800           0
      7445 MEMB     50       POPC     H13B     HL       0.250000       1.00800           0
      7446 MEMB     50       POPC     H13C     HL       0.250000       1.00800           0
      7447 MEMB     50       POPC     C14      CTL5    -0.350000       12.0110           0
      7448 MEMB     50       POPC     H14A     HL       0.250000       1.00800           0
      7449 MEMB     50       POPC     H14B     HL       0.250000       1.00800           0
      7450 MEMB     50       POPC     H14C     HL       0.250000       1.00800           0
      7451 MEMB     50       POPC     C15      CTL5    -0.350000       12.0110           0
      7452 MEMB     50       POPC     H15A     HL       0.250000       1.00800           0
      7453 MEMB     50       POPC     H15B     HL       0.250000       1.00800           0
      7454 MEMB     50       POPC     H15C     HL       0.250000       1.00800           0
      7455 MEMB     50       POPC     C11      CTL2    -0.800000E-01   12.0110           0
      7456 MEMB     50       POPC     H11A     HAL2     0.900000E-01   1.00800           0
      7457 MEMB     50       POPC     H11B     HAL2     0.900000E-01   1.00800           0
      7458 MEMB     50       POPC     P        PL        1.50000       30.9740           0
      7459 MEMB     50       POPC     O13      O2L     -0.780000       15.9994           0
      7460 MEMB     50       POPC     O14      O2L     -0.780000       15.9994           0
      7461 MEMB     50       POPC     O12      OSLP    -0.570000       15.9994           0
      7462 MEMB     50       POPC     O11      OSLP    -0.570000       15.9994           0
      7463 MEMB     50       POPC     C1       CTL2    -0.800000E-01   12.0110           0
      7464 MEMB     50       POPC     HA       HAL2     0.900000E-01   1.00800           0
      7465 MEMB     50       POPC     HB       HAL2     0.900000E-01   1.00800           0
      7466 MEMB     50       POPC     C2       CTL1     0.170000       12.0110           0
      7467 MEMB     50       POPC     HS       HAL1     0.900000E-01   1.00800           0
      7468 MEMB     50       POPC     O21      OSL     -0.490000       15.9994           0
      7469 MEMB     50       POPC     C21      CL       0.900000       12.0110           0
      7470 MEMB     50       POPC     O22      OBL     -0.630000       15.9994           0
      7471 MEMB     50       POPC     C22      CTL2    -0.220000       12.0110           0
      7472 MEMB     50       POPC     H2R      HAL2     0.900000E-01   1.00800           0
      7473 MEMB     50       POPC     H2S      HAL2     0.900000E-01   1.00800           0
      7474 MEMB     50       POPC     C3       CTL2     0.800000E-01   12.0110           0
      7475 MEMB     50       POPC     HX       HAL2     0.900000E-01   1.00800           0
      7476 MEMB     50       POPC     HY       HAL2     0.900000E-01   1.00800           0
      7477 MEMB     50       POPC     O31      OSL     -0.490000       15.9994           0
      7478 MEMB     50       POPC     C31      CL       0.900000       12.0110           0
      7479 MEMB     50       POPC     O32      OBL     -0.630000       15.9994           0
      7480 MEMB     50       POPC     C32      CTL2    -0.220000       12.0110           0
      7481 MEMB     50       POPC     H2X      HAL2     0.900000E-01   1.00800           0
      7482 MEMB     50       POPC     H2Y      HAL2     0.900000E-01   1.00800           0
      7483 MEMB     50       POPC     C23      CTL2    -0.180000       12.0110           0
      7484 MEMB     50       POPC     H3R      HAL2     0.900000E-01   1.00800           0
      7485 MEMB     50       POPC     H3S      HAL2     0.900000E-01   1.00800           0
      7486 MEMB     50       POPC     C24      CTL2    -0.180000       12.0110           0
      7487 MEMB     50       POPC     H4R      HAL2     0.900000E-01   1.00800           0
      7488 MEMB     50       POPC     H4S      HAL2     0.900000E-01   1.00800           0
      7489 MEMB     50       POPC     C25      CTL2    -0.180000       12.0110           0
      7490 MEMB     50       POPC     H5R      HAL2     0.900000E-01   1.00800           0
      7491 MEMB     50       POPC     H5S      HAL2     0.900000E-01   1.00800           0
      7492 MEMB     50       POPC     C26      CTL2    -0.180000       12.0110           0
      7493 MEMB     50       POPC     H6R      HAL2     0.900000E-01   1.00800           0
      7494 MEMB     50       POPC     H6S      HAL2     0.900000E-01   1.00800           0
      7495 MEMB     50       POPC     C27      CTL2    -0.180000       12.0110           0
      7496 MEMB     50       POPC     H7R      HAL2     0.900000E-01   1.00800           0
      7497 MEMB     50       POPC     H7S      HAL2     0.900000E-01   1.00800           0
      7498 MEMB     50       POPC     C28      CTL2    -0.180000       12.0110           0
      7499 MEMB     50       POPC     H8R      HAL2     0.900000E-01   1.00800           0
      7500 MEMB     50       POPC     H8S      HAL2     0.900000E-01   1.00800           0
      7501 MEMB     50       POPC     C29      CEL1    -0.150000       12.0110           0
      7502 MEMB     50       POPC     H91      HEL1     0.150000       1.00800           0
      7503 MEMB     50       POPC     C210     CEL1    -0.150000       12.0110           0
      7504 MEMB     50       POPC     H101     HEL1     0.150000       1.00800           0
      7505 MEMB     50       POPC     C211     CTL2    -0.180000       12.0110           0
      7506 MEMB     50       POPC     H11R     HAL2     0.900000E-01   1.00800           0
      7507 MEMB     50       POPC     H11S     HAL2     0.900000E-01   1.00800           0
      7508 MEMB     50       POPC     C212     CTL2    -0.180000       12.0110           0
      7509 MEMB     50       POPC     H12R     HAL2     0.900000E-01   1.00800           0
      7510 MEMB     50       POPC     H12S     HAL2     0.900000E-01   1.00800           0
      7511 MEMB     50       POPC     C213     CTL2    -0.180000       12.0110           0
      7512 MEMB     50       POPC     H13R     HAL2     0.900000E-01   1.00800           0
      7513 MEMB     50       POPC     H13S     HAL2     0.900000E-01   1.00800           0
      7514 MEMB     50       POPC     C214     CTL2    -0.180000       12.0110           0
      7515 MEMB     50       POPC     H14R     HAL2     0.900000E-01   1.00800           0
      7516 MEMB     50       POPC     H14S     HAL2     0.900000E-01   1.00800           0
      7517 MEMB     50       POPC     C215     CTL2    -0.180000       12.0110           0
      7518 MEMB     50       POPC     H15R     HAL2     0.900000E-01   1.00800           0
      7519 MEMB     50       POPC     H15S     HAL2     0.900000E-01   1.00800           0
      7520 MEMB     50       POPC     C216     CTL2    -0.180000       12.0110           0
      7521 MEMB     50       POPC     H16R     HAL2     0.900000E-01   1.00800           0
      7522 MEMB     50       POPC     H16S     HAL2     0.900000E-01   1.00800           0
      7523 MEMB     50       POPC     C217     CTL2    -0.180000       12.0110           0
      7524 MEMB     50       POPC     H17R     HAL2     0.900000E-01   1.00800           0
      7525 MEMB     50       POPC     H17S     HAL2     0.900000E-01   1.00800           0
      7526 MEMB     50       POPC     C218     CTL3    -0.270000       12.0110           0
      7527 MEMB     50       POPC     H18R     HAL3     0.900000E-01   1.00800           0
      7528 MEMB     50       POPC     H18S     HAL3     0.900000E-01   1.00800           0
      7529 MEMB     50       POPC     H18T     HAL3     0.900000E-01   1.00800           0
      7530 MEMB     50       POPC     C33      CTL2    -0.180000       12.0110           0
      7531 MEMB     50       POPC     H3X      HAL2     0.900000E-01   1.00800           0
      7532 MEMB     50       POPC     H3Y      HAL2     0.900000E-01   1.00800           0
      7533 MEMB     50       POPC     C34      CTL2    -0.180000       12.0110           0
      7534 MEMB     50       POPC     H4X      HAL2     0.900000E-01   1.00800           0
      7535 MEMB     50       POPC     H4Y      HAL2     0.900000E-01   1.00800           0
      7536 MEMB     50       POPC     C35      CTL2    -0.180000       12.0110           0
      7537 MEMB     50       POPC     H5X      HAL2     0.900000E-01   1.00800           0
      7538 MEMB     50       POPC     H5Y      HAL2     0.900000E-01   1.00800           0
      7539 MEMB     50       POPC     C36      CTL2    -0.180000       12.0110           0
      7540 MEMB     50       POPC     H6X      HAL2     0.900000E-01   1.00800           0
      7541 MEMB     50       POPC     H6Y      HAL2     0.900000E-01   1.00800           0
      7542 MEMB     50       POPC     C37      CTL2    -0.180000       12.0110           0
      7543 MEMB     50       POPC     H7X      HAL2     0.900000E-01   1.00800           0
      7544 MEMB     50       POPC     H7Y      HAL2     0.900000E-01   1.00800           0
      7545 MEMB     50       POPC     C38      CTL2    -0.180000       12.0110           0
      7546 MEMB     50       POPC     H8X      HAL2     0.900000E-01   1.00800           0
      7547 MEMB     50       POPC     H8Y      HAL2     0.900000E-01   1.00800           0
      7548 MEMB     50       POPC     C39      CTL2    -0.180000       12.0110           0
      7549 MEMB     50       POPC     H9X      HAL2     0.900000E-01   1.00800           0
      7550 MEMB     50       POPC     H9Y      HAL2     0.900000E-01   1.00800           0
      7551 MEMB     50       POPC     C310     CTL2    -0.180000       12.0110           0
      7552 MEMB     50       POPC     H10X     HAL2     0.900000E-01   1.00800           0
      7553 MEMB     50       POPC     H10Y     HAL2     0.900000E-01   1.00800           0
      7554 MEMB     50       POPC     C311     CTL2    -0.180000       12.0110           0
      7555 MEMB     50       POPC     H11X     HAL2     0.900000E-01   1.00800           0
      7556 MEMB     50       POPC     H11Y     HAL2     0.900000E-01   1.00800           0
      7557 MEMB     50       POPC     C312     CTL2    -0.180000       12.0110           0
      7558 MEMB     50       POPC     H12X     HAL2     0.900000E-01   1.00800           0
      7559 MEMB     50       POPC     H12Y     HAL2     0.900000E-01   1.00800           0
      7560 MEMB     50       POPC     C313     CTL2    -0.180000       12.0110           0
      7561 MEMB     50       POPC     H13X     HAL2     0.900000E-01   1.00800           0
      7562 MEMB     50       POPC     H13Y     HAL2     0.900000E-01   1.00800           0
      7563 MEMB     50       POPC     C314     CTL2    -0.180000       12.0110           0
      7564 MEMB     50       POPC     H14X     HAL2     0.900000E-01   1.00800           0
      7565 MEMB     50       POPC     H14Y     HAL2     0.900000E-01   1.00800           0
      7566 MEMB     50       POPC     C315     CTL2    -0.180000       12.0110           0
      7567 MEMB     50       POPC     H15X     HAL2     0.900000E-01   1.00800           0
      7568 MEMB     50       POPC     H15Y     HAL2     0.900000E-01   1.00800           0
      7569 MEMB     50       POPC     C316     CTL3    -0.270000       12.0110           0
      7570 MEMB     50       POPC     H16X     HAL3     0.900000E-01   1.00800           0
      7571 MEMB     50       POPC     H16Y     HAL3     0.900000E-01   1.00800           0
      7572 MEMB     50       POPC     H16Z     HAL3     0.900000E-01   1.00800           0
      7573 MEMB     51       POPC     N        NTL     -0.600000       14.0070           0
      7574 MEMB     51       POPC     C12      CTL2    -0.100000       12.0110           0
      7575 MEMB     51       POPC     H12A     HL       0.250000       1.00800           0
      7576 MEMB     51       POPC     H12B     HL       0.250000       1.00800           0
      7577 MEMB     51       POPC     C13      CTL5    -0.350000       12.0110           0
      7578 MEMB     51       POPC     H13A     HL       0.250000       1.00800           0
      7579 MEMB     51       POPC     H13B     HL       0.250000       1.00800           0
      7580 MEMB     51       POPC     H13C     HL       0.250000       1.00800           0
      7581 MEMB     51       POPC     C14      CTL5    -0.350000       12.0110           0
      7582 MEMB     51       POPC     H14A     HL       0.250000       1.00800           0
      7583 MEMB     51       POPC     H14B     HL       0.250000       1.00800           0
      7584 MEMB     51       POPC     H14C     HL       0.250000       1.00800           0
      7585 MEMB     51       POPC     C15      CTL5    -0.350000       12.0110           0
      7586 MEMB     51       POPC     H15A     HL       0.250000       1.00800           0
      7587 MEMB     51       POPC     H15B     HL       0.250000       1.00800           0
      7588 MEMB     51       POPC     H15C     HL       0.250000       1.00800           0
      7589 MEMB     51       POPC     C11      CTL2    -0.800000E-01   12.0110           0
      7590 MEMB     51       POPC     H11A     HAL2     0.900000E-01   1.00800           0
      7591 MEMB     51       POPC     H11B     HAL2     0.900000E-01   1.00800           0
      7592 MEMB     51       POPC     P        PL        1.50000       30.9740           0
      7593 MEMB     51       POPC     O13      O2L     -0.780000       15.9994           0
      7594 MEMB     51       POPC     O14      O2L     -0.780000       15.9994           0
      7595 MEMB     51       POPC     O12      OSLP    -0.570000       15.9994           0
      7596 MEMB     51       POPC     O11      OSLP    -0.570000       15.9994           0
      7597 MEMB     51       POPC     C1       CTL2    -0.800000E-01   12.0110           0
      7598 MEMB     51       POPC     HA       HAL2     0.900000E-01   1.00800           0
      7599 MEMB     51       POPC     HB       HAL2     0.900000E-01   1.00800           0
      7600 MEMB     51       POPC     C2       CTL1     0.170000       12.0110           0
      7601 MEMB     51       POPC     HS       HAL1     0.900000E-01   1.00800           0
      7602 MEMB     51       POPC     O21      OSL     -0.490000       15.9994           0
      7603 MEMB     51       POPC     C21      CL       0.900000       12.0110           0
      7604 MEMB     51       POPC     O22      OBL     -0.630000       15.9994           0
      7605 MEMB     51       POPC     C22      CTL2    -0.220000       12.0110           0
      7606 MEMB     51       POPC     H2R      HAL2     0.900000E-01   1.00800           0
      7607 MEMB     51       POPC     H2S      HAL2     0.900000E-01   1.00800           0
      7608 MEMB     51       POPC     C3       CTL2     0.800000E-01   12.0110           0
      7609 MEMB     51       POPC     HX       HAL2     0.900000E-01   1.00800           0
      7610 MEMB     51       POPC     HY       HAL2     0.900000E-01   1.00800           0
      7611 MEMB     51       POPC     O31      OSL     -0.490000       15.9994           0
      7612 MEMB     51       POPC     C31      CL       0.900000       12.0110           0
      7613 MEMB     51       POPC     O32      OBL     -0.630000       15.9994           0
      7614 MEMB     51       POPC     C32      CTL2    -0.220000       12.0110           0
      7615 MEMB     51       POPC     H2X      HAL2     0.900000E-01   1.00800           0
      7616 MEMB     51       POPC     H2Y      HAL2     0.900000E-01   1.00800           0
      7617 MEMB     51       POPC     C23      CTL2    -0.180000       12.0110           0
      7618 MEMB     51       POPC     H3R      HAL2     0.900000E-01   1.00800           0
      7619 MEMB     51       POPC     H3S      HAL2     0.900000E-01   1.00800           0
      7620 MEMB     51       POPC     C24      CTL2    -0.180000       12.0110           0
      7621 MEMB     51       POPC     H4R      HAL2     0.900000E-01   1.00800           0
      7622 MEMB     51       POPC     H4S      HAL2     0.900000E-01   1.00800           0
      7623 MEMB     51       POPC     C25      CTL2    -0.180000       12.0110           0
      7624 MEMB     51       POPC     H5R      HAL2     0.900000E-01   1.00800           0
      7625 MEMB     51       POPC     H5S      HAL2     0.900000E-01   1.00800           0
      7626 MEMB     51       POPC     C26      CTL2    -0.180000       12.0110           0
      7627 MEMB     51       POPC     H6R      HAL2     0.900000E-01   1.00800           0
      7628 MEMB     51       POPC     H6S      HAL2     0.900000E-01   1.00800           0
      7629 MEMB     51       POPC     C27      CTL2    -0.180000       12.0110           0
      7630 MEMB     51       POPC     H7R      HAL2     0.900000E-01   1.00800           0
      7631 MEMB     51       POPC     H7S      HAL2     0.900000E-01   1.00800           0
      7632 MEMB     51       POPC     C28      CTL2    -0.180000       12.0110           0
      7633 MEMB     51       POPC     H8R      HAL2     0.900000E-01   1.00800           0
      7634 MEMB     51       POPC     H8S      HAL2     0.900000E-01   1.00800           0
      7635 MEMB     51       POPC     C29      CEL1    -0.150000       12.0110           0
      7636 MEMB     51       POPC     H91      HEL1     0.150000       1.00800           0
      7637 MEMB     51       POPC     C210     CEL1    -0.150000       12.0110           0
      7638 MEMB     51       POPC     H101     HEL1     0.150000       1.00800           0
      7639 MEMB     51       POPC     C211     CTL2    -0.180000       12.0110           0
      7640 MEMB     51       POPC     H11R     HAL2     0.900000E-01   1.00800           0
      7641 MEMB     51       POPC     H11S     HAL2     0.900000E-01   1.00800           0
      7642 MEMB     51       POPC     C212     CTL2    -0.180000       12.0110           0
      7643 MEMB     51       POPC     H12R     HAL2     0.900000E-01   1.00800           0
      7644 MEMB     51       POPC     H12S     HAL2     0.900000E-01   1.00800           0
      7645 MEMB     51       POPC     C213     CTL2    -0.180000       12.0110           0
      7646 MEMB     51       POPC     H13R     HAL2     0.900000E-01   1.00800           0
      7647 MEMB     51       POPC     H13S     HAL2     0.900000E-01   1.00800           0
      7648 MEMB     51       POPC     C214     CTL2    -0.180000       12.0110           0
      7649 MEMB     51       POPC     H14R     HAL2     0.900000E-01   1.00800           0
      7650 MEMB     51       POPC     H14S     HAL2     0.900000E-01   1.00800           0
      7651 MEMB     51       POPC     C215     CTL2    -0.180000       12.0110           0
      7652 MEMB     51       POPC     H15R     HAL2     0.900000E-01   1.00800           0
      7653 MEMB     51       POPC     H15S     HAL2     0.900000E-01   1.00800           0
      7654 MEMB     51       POPC     C216     CTL2    -0.180000       12.0110           0
      7655 MEMB     51       POPC     H16R     HAL2     0.900000E-01   1.00800           0
      7656 MEMB     51       POPC     H16S     HAL2     0.900000E-01   1.00800           0
      7657 MEMB     51       POPC     C217     CTL2    -0.180000       12.0110           0
      7658 MEMB     51       POPC     H17R     HAL2     0.900000E-01   1.00800           0
      7659 MEMB     51       POPC     H17S     HAL2     0.900000E-01   1.00800           0
      7660 MEMB     51       POPC     C218     CTL3    -0.270000       12.0110           0
      7661 MEMB     51       POPC     H18R     HAL3     0.900000E-01   1.00800           0
      7662 MEMB     51       POPC     H18S     HAL3     0.900000E-01   1.00800           0
      7663 MEMB     51       POPC     H18T     HAL3     0.900000E-01   1.00800           0
      7664 MEMB     51       POPC     C33      CTL2    -0.180000       12.0110           0
      7665 MEMB     51       POPC     H3X      HAL2     0.900000E-01   1.00800           0
      7666 MEMB     51       POPC     H3Y      HAL2     0.900000E-01   1.00800           0
      7667 MEMB     51       POPC     C34      CTL2    -0.180000       12.0110           0
      7668 MEMB     51       POPC     H4X      HAL2     0.900000E-01   1.00800           0
      7669 MEMB     51       POPC     H4Y      HAL2     0.900000E-01   1.00800           0
      7670 MEMB     51       POPC     C35      CTL2    -0.180000       12.0110           0
      7671 MEMB     51       POPC     H5X      HAL2     0.900000E-01   1.00800           0
      7672 MEMB     51       POPC     H5Y      HAL2     0.900000E-01   1.00800           0
      7673 MEMB     51       POPC     C36      CTL2    -0.180000       12.0110           0
      7674 MEMB     51       POPC     H6X      HAL2     0.900000E-01   1.00800           0
      7675 MEMB     51       POPC     H6Y      HAL2     0.900000E-01   1.00800           0
      7676 MEMB     51       POPC     C37      CTL2    -0.180000       12.0110           0
      7677 MEMB     51       POPC     H7X      HAL2     0.900000E-01   1.00800           0
      7678 MEMB     51       POPC     H7Y      HAL2     0.900000E-01   1.00800           0
      7679 MEMB     51       POPC     C38      CTL2    -0.180000       12.0110           0
      7680 MEMB     51       POPC     H8X      HAL2     0.900000E-01   1.00800           0
      7681 MEMB     51       POPC     H8Y      HAL2     0.900000E-01   1.00800           0
      7682 MEMB     51       POPC     C39      CTL2    -0.180000       12.0110           0
      7683 MEMB     51       POPC     H9X      HAL2     0.900000E-01   1.00800           0
      7684 MEMB     51       POPC     H9Y      HAL2     0.900000E-01   1.00800           0
      7685 MEMB     51       POPC     C310     CTL2    -0.180000       12.0110           0
      7686 MEMB     51       POPC     H10X     HAL2     0.900000E-01   1.00800           0
      7687 MEMB     51       POPC     H10Y     HAL2     0.900000E-01   1.00800           0
      7688 MEMB     51       POPC     C311     CTL2    -0.180000       12.0110           0
      7689 MEMB     51       POPC     H11X     HAL2     0.900000E-01   1.00800           0
      7690 MEMB     51       POPC     H11Y     HAL2     0.900000E-01   1.00800           0
      7691 MEMB     51       POPC     C312     CTL2    -0.180000       12.0110           0
      7692 MEMB     51       POPC     H12X     HAL2     0.900000E-01   1.00800           0
      7693 MEMB     51       POPC     H12Y     HAL2     0.900000E-01   1.00800           0
      7694 MEMB     51       POPC     C313     CTL2    -0.180000       12.0110           0
      7695 MEMB     51       POPC     H13X     HAL2     0.900000E-01   1.00800           0
      7696 MEMB     51       POPC     H13Y     HAL2     0.900000E-01   1.00800           0
      7697 MEMB     51       POPC     C314     CTL2    -0.180000       12.0110           0
      7698 MEMB     51       POPC     H14X     HAL2     0.900000E-01   1.00800           0
      7699 MEMB     51       POPC     H14Y     HAL2     0.900000E-01   1.00800           0
      7700 MEMB     51       POPC     C315     CTL2    -0.180000       12.0110           0
      7701 MEMB     51       POPC     H15X     HAL2     0.900000E-01   1.00800           0
      7702 MEMB     51       POPC     H15Y     HAL2     0.900000E-01   1.00800           0
      7703 MEMB     51       POPC     C316     CTL3    -0.270000       12.0110           0
      7704 MEMB     51       POPC     H16X     HAL3     0.900000E-01   1.00800           0
      7705 MEMB     51       POPC     H16Y     HAL3     0.900000E-01   1.00800           0
      7706 MEMB     51       POPC     H16Z     HAL3     0.900000E-01   1.00800           0
      7707 MEMB     52       POPC     N        NTL     -0.600000       14.0070           0
      7708 MEMB     52       POPC     C12      CTL2    -0.100000       12.0110           0
      7709 MEMB     52       POPC     H12A     HL       0.250000       1.00800           0
      7710 MEMB     52       POPC     H12B     HL       0.250000       1.00800           0
      7711 MEMB     52       POPC     C13      CTL5    -0.350000       12.0110           0
      7712 MEMB     52       POPC     H13A     HL       0.250000       1.00800           0
      7713 MEMB     52       POPC     H13B     HL       0.250000       1.00800           0
      7714 MEMB     52       POPC     H13C     HL       0.250000       1.00800           0
      7715 MEMB     52       POPC     C14      CTL5    -0.350000       12.0110           0
      7716 MEMB     52       POPC     H14A     HL       0.250000       1.00800           0
      7717 MEMB     52       POPC     H14B     HL       0.250000       1.00800           0
      7718 MEMB     52       POPC     H14C     HL       0.250000       1.00800           0
      7719 MEMB     52       POPC     C15      CTL5    -0.350000       12.0110           0
      7720 MEMB     52       POPC     H15A     HL       0.250000       1.00800           0
      7721 MEMB     52       POPC     H15B     HL       0.250000       1.00800           0
      7722 MEMB     52       POPC     H15C     HL       0.250000       1.00800           0
      7723 MEMB     52       POPC     C11      CTL2    -0.800000E-01   12.0110           0
      7724 MEMB     52       POPC     H11A     HAL2     0.900000E-01   1.00800           0
      7725 MEMB     52       POPC     H11B     HAL2     0.900000E-01   1.00800           0
      7726 MEMB     52       POPC     P        PL        1.50000       30.9740           0
      7727 MEMB     52       POPC     O13      O2L     -0.780000       15.9994           0
      7728 MEMB     52       POPC     O14      O2L     -0.780000       15.9994           0
      7729 MEMB     52       POPC     O12      OSLP    -0.570000       15.9994           0
      7730 MEMB     52       POPC     O11      OSLP    -0.570000       15.9994           0
      7731 MEMB     52       POPC     C1       CTL2    -0.800000E-01   12.0110           0
      7732 MEMB     52       POPC     HA       HAL2     0.900000E-01   1.00800           0
      7733 MEMB     52       POPC     HB       HAL2     0.900000E-01   1.00800           0
      7734 MEMB     52       POPC     C2       CTL1     0.170000       12.0110           0
      7735 MEMB     52       POPC     HS       HAL1     0.900000E-01   1.00800           0
      7736 MEMB     52       POPC     O21      OSL     -0.490000       15.9994           0
      7737 MEMB     52       POPC     C21      CL       0.900000       12.0110           0
      7738 MEMB     52       POPC     O22      OBL     -0.630000       15.9994           0
      7739 MEMB     52       POPC     C22      CTL2    -0.220000       12.0110           0
      7740 MEMB     52       POPC     H2R      HAL2     0.900000E-01   1.00800           0
      7741 MEMB     52       POPC     H2S      HAL2     0.900000E-01   1.00800           0
      7742 MEMB     52       POPC     C3       CTL2     0.800000E-01   12.0110           0
      7743 MEMB     52       POPC     HX       HAL2     0.900000E-01   1.00800           0
      7744 MEMB     52       POPC     HY       HAL2     0.900000E-01   1.00800           0
      7745 MEMB     52       POPC     O31      OSL     -0.490000       15.9994           0
      7746 MEMB     52       POPC     C31      CL       0.900000       12.0110           0
      7747 MEMB     52       POPC     O32      OBL     -0.630000       15.9994           0
      7748 MEMB     52       POPC     C32      CTL2    -0.220000       12.0110           0
      7749 MEMB     52       POPC     H2X      HAL2     0.900000E-01   1.00800           0
      7750 MEMB     52       POPC     H2Y      HAL2     0.900000E-01   1.00800           0
      7751 MEMB     52       POPC     C23      CTL2    -0.180000       12.0110           0
      7752 MEMB     52       POPC     H3R      HAL2     0.900000E-01   1.00800           0
      7753 MEMB     52       POPC     H3S      HAL2     0.900000E-01   1.00800           0
      7754 MEMB     52       POPC     C24      CTL2    -0.180000       12.0110           0
      7755 MEMB     52       POPC     H4R      HAL2     0.900000E-01   1.00800           0
      7756 MEMB     52       POPC     H4S      HAL2     0.900000E-01   1.00800           0
      7757 MEMB     52       POPC     C25      CTL2    -0.180000       12.0110           0
      7758 MEMB     52       POPC     H5R      HAL2     0.900000E-01   1.00800           0
      7759 MEMB     52       POPC     H5S      HAL2     0.900000E-01   1.00800           0
      7760 MEMB     52       POPC     C26      CTL2    -0.180000       12.0110           0
      7761 MEMB     52       POPC     H6R      HAL2     0.900000E-01   1.00800           0
      7762 MEMB     52       POPC     H6S      HAL2     0.900000E-01   1.00800           0
      7763 MEMB     52       POPC     C27      CTL2    -0.180000       12.0110           0
      7764 MEMB     52       POPC     H7R      HAL2     0.900000E-01   1.00800           0
      7765 MEMB     52       POPC     H7S      HAL2     0.900000E-01   1.00800           0
      7766 MEMB     52       POPC     C28      CTL2    -0.180000       12.0110           0
      7767 MEMB     52       POPC     H8R      HAL2     0.900000E-01   1.00800           0
      7768 MEMB     52       POPC     H8S      HAL2     0.900000E-01   1.00800           0
      7769 MEMB     52       POPC     C29      CEL1    -0.150000       12.0110           0
      7770 MEMB     52       POPC     H91      HEL1     0.150000       1.00800           0
      7771 MEMB     52       POPC     C210     CEL1    -0.150000       12.0110           0
      7772 MEMB     52       POPC     H101     HEL1     0.150000       1.00800           0
      7773 MEMB     52       POPC     C211     CTL2    -0.180000       12.0110           0
      7774 MEMB     52       POPC     H11R     HAL2     0.900000E-01   1.00800           0
      7775 MEMB     52       POPC     H11S     HAL2     0.900000E-01   1.00800           0
      7776 MEMB     52       POPC     C212     CTL2    -0.180000       12.0110           0
      7777 MEMB     52       POPC     H12R     HAL2     0.900000E-01   1.00800           0
      7778 MEMB     52       POPC     H12S     HAL2     0.900000E-01   1.00800           0
      7779 MEMB     52       POPC     C213     CTL2    -0.180000       12.0110           0
      7780 MEMB     52       POPC     H13R     HAL2     0.900000E-01   1.00800           0
      7781 MEMB     52       POPC     H13S     HAL2     0.900000E-01   1.00800           0
      7782 MEMB     52       POPC     C214     CTL2    -0.180000       12.0110           0
      7783 MEMB     52       POPC     H14R     HAL2     0.900000E-01   1.00800           0
      7784 MEMB     52       POPC     H14S     HAL2     0.900000E-01   1.00800           0
      7785 MEMB     52       POPC     C215     CTL2    -0.180000       12.0110           0
      7786 MEMB     52       POPC     H15R     HAL2     0.900000E-01   1.00800           0
      7787 MEMB     52       POPC     H15S     HAL2     0.900000E-01   1.00800           0
      7788 MEMB     52       POPC     C216     CTL2    -0.180000       12.0110           0
      7789 MEMB     52       POPC     H16R     HAL2     0.900000E-01   1.00800           0
      7790 MEMB     52       POPC     H16S     HAL2     0.900000E-01   1.00800           0
      7791 MEMB     52       POPC     C217     CTL2    -0.180000       12.0110           0
      7792 MEMB     52       POPC     H17R     HAL2     0.900000E-01   1.00800           0
      7793 MEMB     52       POPC     H17S     HAL2     0.900000E-01   1.00800           0
      7794 MEMB     52       POPC     C218     CTL3    -0.270000       12.0110           0
      7795 MEMB     52       POPC     H18R     HAL3     0.900000E-01   1.00800           0
      7796 MEMB     52       POPC     H18S     HAL3     0.900000E-01   1.00800           0
      7797 MEMB     52       POPC     H18T     HAL3     0.900000E-01   1.00800           0
      7798 MEMB     52       POPC     C33      CTL2    -0.180000       12.0110           0
      7799 MEMB     52       POPC     H3X      HAL2     0.900000E-01   1.00800           0
      7800 MEMB     52       POPC     H3Y      HAL2     0.900000E-01   1.00800           0
      7801 MEMB     52       POPC     C34      CTL2    -0.180000       12.0110           0
      7802 MEMB     52       POPC     H4X      HAL2     0.900000E-01   1.00800           0
      7803 MEMB     52       POPC     H4Y      HAL2     0.900000E-01   1.00800           0
      7804 MEMB     52       POPC     C35      CTL2    -0.180000       12.0110           0
      7805 MEMB     52       POPC     H5X      HAL2     0.900000E-01   1.00800           0
      7806 MEMB     52       POPC     H5Y      HAL2     0.900000E-01   1.00800           0
      7807 MEMB     52       POPC     C36      CTL2    -0.180000       12.0110           0
      7808 MEMB     52       POPC     H6X      HAL2     0.900000E-01   1.00800           0
      7809 MEMB     52       POPC     H6Y      HAL2     0.900000E-01   1.00800           0
      7810 MEMB     52       POPC     C37      CTL2    -0.180000       12.0110           0
      7811 MEMB     52       POPC     H7X      HAL2     0.900000E-01   1.00800           0
      7812 MEMB     52       POPC     H7Y      HAL2     0.900000E-01   1.00800           0
      7813 MEMB     52       POPC     C38      CTL2    -0.180000       12.0110           0
      7814 MEMB     52       POPC     H8X      HAL2     0.900000E-01   1.00800           0
      7815 MEMB     52       POPC     H8Y      HAL2     0.900000E-01   1.00800           0
      7816 MEMB     52       POPC     C39      CTL2    -0.180000       12.0110           0
      7817 MEMB     52       POPC     H9X      HAL2     0.900000E-01   1.00800           0
      7818 MEMB     52       POPC     H9Y      HAL2     0.900000E-01   1.00800           0
      7819 MEMB     52       POPC     C310     CTL2    -0.180000       12.0110           0
      7820 MEMB     52       POPC     H10X     HAL2     0.900000E-01   1.00800           0
      7821 MEMB     52       POPC     H10Y     HAL2     0.900000E-01   1.00800           0
      7822 MEMB     52       POPC     C311     CTL2    -0.180000       12.0110           0
      7823 MEMB     52       POPC     H11X     HAL2     0.900000E-01   1.00800           0
      7824 MEMB     52       POPC     H11Y     HAL2     0.900000E-01   1.00800           0
      7825 MEMB     52       POPC     C312     CTL2    -0.180000       12.0110           0
      7826 MEMB     52       POPC     H12X     HAL2     0.900000E-01   1.00800           0
      7827 MEMB     52       POPC     H12Y     HAL2     0.900000E-01   1.00800           0
      7828 MEMB     52       POPC     C313     CTL2    -0.180000       12.0110           0
      7829 MEMB     52       POPC     H13X     HAL2     0.900000E-01   1.00800           0
      7830 MEMB     52       POPC     H13Y     HAL2     0.900000E-01   1.00800           0
      7831 MEMB     52       POPC     C314     CTL2    -0.180000       12.0110           0
      7832 MEMB     52       POPC     H14X     HAL2     0.900000E-01   1.00800           0
      7833 MEMB     52       POPC     H14Y     HAL2     0.900000E-01   1.00800           0
      7834 MEMB     52       POPC     C315     CTL2    -0.180000       12.0110           0
      7835 MEMB     52       POPC     H15X     HAL2     0.900000E-01   1.00800           0
      7836 MEMB     52       POPC     H15Y     HAL2     0.900000E-01   1.00800           0
      7837 MEMB     52       POPC     C316     CTL3    -0.270000       12.0110           0
      7838 MEMB     52       POPC     H16X     HAL3     0.900000E-01   1.00800           0
      7839 MEMB     52       POPC     H16Y     HAL3     0.900000E-01   1.00800           0
      7840 MEMB     52       POPC     H16Z     HAL3     0.900000E-01   1.00800           0
      7841 MEMB     53       POPC     N        NTL     -0.600000       14.0070           0
      7842 MEMB     53       POPC     C12      CTL2    -0.100000       12.0110           0
      7843 MEMB     53       POPC     H12A     HL       0.250000       1.00800           0
      7844 MEMB     53       POPC     H12B     HL       0.250000       1.00800           0
      7845 MEMB     53       POPC     C13      CTL5    -0.350000       12.0110           0
      7846 MEMB     53       POPC     H13A     HL       0.250000       1.00800           0
      7847 MEMB     53       POPC     H13B     HL       0.250000       1.00800           0
      7848 MEMB     53       POPC     H13C     HL       0.250000       1.00800           0
      7849 MEMB     53       POPC     C14      CTL5    -0.350000       12.0110           0
      7850 MEMB     53       POPC     H14A     HL       0.250000       1.00800           0
      7851 MEMB     53       POPC     H14B     HL       0.250000       1.00800           0
      7852 MEMB     53       POPC     H14C     HL       0.250000       1.00800           0
      7853 MEMB     53       POPC     C15      CTL5    -0.350000       12.0110           0
      7854 MEMB     53       POPC     H15A     HL       0.250000       1.00800           0
      7855 MEMB     53       POPC     H15B     HL       0.250000       1.00800           0
      7856 MEMB     53       POPC     H15C     HL       0.250000       1.00800           0
      7857 MEMB     53       POPC     C11      CTL2    -0.800000E-01   12.0110           0
      7858 MEMB     53       POPC     H11A     HAL2     0.900000E-01   1.00800           0
      7859 MEMB     53       POPC     H11B     HAL2     0.900000E-01   1.00800           0
      7860 MEMB     53       POPC     P        PL        1.50000       30.9740           0
      7861 MEMB     53       POPC     O13      O2L     -0.780000       15.9994           0
      7862 MEMB     53       POPC     O14      O2L     -0.780000       15.9994           0
      7863 MEMB     53       POPC     O12      OSLP    -0.570000       15.9994           0
      7864 MEMB     53       POPC     O11      OSLP    -0.570000       15.9994           0
      7865 MEMB     53       POPC     C1       CTL2    -0.800000E-01   12.0110           0
      7866 MEMB     53       POPC     HA       HAL2     0.900000E-01   1.00800           0
      7867 MEMB     53       POPC     HB       HAL2     0.900000E-01   1.00800           0
      7868 MEMB     53       POPC     C2       CTL1     0.170000       12.0110           0
      7869 MEMB     53       POPC     HS       HAL1     0.900000E-01   1.00800           0
      7870 MEMB     53       POPC     O21      OSL     -0.490000       15.9994           0
      7871 MEMB     53       POPC     C21      CL       0.900000       12.0110           0
      7872 MEMB     53       POPC     O22      OBL     -0.630000       15.9994           0
      7873 MEMB     53       POPC     C22      CTL2    -0.220000       12.0110           0
      7874 MEMB     53       POPC     H2R      HAL2     0.900000E-01   1.00800           0
      7875 MEMB     53       POPC     H2S      HAL2     0.900000E-01   1.00800           0
      7876 MEMB     53       POPC     C3       CTL2     0.800000E-01   12.0110           0
      7877 MEMB     53       POPC     HX       HAL2     0.900000E-01   1.00800           0
      7878 MEMB     53       POPC     HY       HAL2     0.900000E-01   1.00800           0
      7879 MEMB     53       POPC     O31      OSL     -0.490000       15.9994           0
      7880 MEMB     53       POPC     C31      CL       0.900000       12.0110           0
      7881 MEMB     53       POPC     O32      OBL     -0.630000       15.9994           0
      7882 MEMB     53       POPC     C32      CTL2    -0.220000       12.0110           0
      7883 MEMB     53       POPC     H2X      HAL2     0.900000E-01   1.00800           0
      7884 MEMB     53       POPC     H2Y      HAL2     0.900000E-01   1.00800           0
      7885 MEMB     53       POPC     C23      CTL2    -0.180000       12.0110           0
      7886 MEMB     53       POPC     H3R      HAL2     0.900000E-01   1.00800           0
      7887 MEMB     53       POPC     H3S      HAL2     0.900000E-01   1.00800           0
      7888 MEMB     53       POPC     C24      CTL2    -0.180000       12.0110           0
      7889 MEMB     53       POPC     H4R      HAL2     0.900000E-01   1.00800           0
      7890 MEMB     53       POPC     H4S      HAL2     0.900000E-01   1.00800           0
      7891 MEMB     53       POPC     C25      CTL2    -0.180000       12.0110           0
      7892 MEMB     53       POPC     H5R      HAL2     0.900000E-01   1.00800           0
      7893 MEMB     53       POPC     H5S      HAL2     0.900000E-01   1.00800           0
      7894 MEMB     53       POPC     C26      CTL2    -0.180000       12.0110           0
      7895 MEMB     53       POPC     H6R      HAL2     0.900000E-01   1.00800           0
      7896 MEMB     53       POPC     H6S      HAL2     0.900000E-01   1.00800           0
      7897 MEMB     53       POPC     C27      CTL2    -0.180000       12.0110           0
      7898 MEMB     53       POPC     H7R      HAL2     0.900000E-01   1.00800           0
      7899 MEMB     53       POPC     H7S      HAL2     0.900000E-01   1.00800           0
      7900 MEMB     53       POPC     C28      CTL2    -0.180000       12.0110           0
      7901 MEMB     53       POPC     H8R      HAL2     0.900000E-01   1.00800           0
      7902 MEMB     53       POPC     H8S      HAL2     0.900000E-01   1.00800           0
      7903 MEMB     53       POPC     C29      CEL1    -0.150000       12.0110           0
      7904 MEMB     53       POPC     H91      HEL1     0.150000       1.00800           0
      7905 MEMB     53       POPC     C210     CEL1    -0.150000       12.0110           0
      7906 MEMB     53       POPC     H101     HEL1     0.150000       1.00800           0
      7907 MEMB     53       POPC     C211     CTL2    -0.180000       12.0110           0
      7908 MEMB     53       POPC     H11R     HAL2     0.900000E-01   1.00800           0
      7909 MEMB     53       POPC     H11S     HAL2     0.900000E-01   1.00800           0
      7910 MEMB     53       POPC     C212     CTL2    -0.180000       12.0110           0
      7911 MEMB     53       POPC     H12R     HAL2     0.900000E-01   1.00800           0
      7912 MEMB     53       POPC     H12S     HAL2     0.900000E-01   1.00800           0
      7913 MEMB     53       POPC     C213     CTL2    -0.180000       12.0110           0
      7914 MEMB     53       POPC     H13R     HAL2     0.900000E-01   1.00800           0
      7915 MEMB     53       POPC     H13S     HAL2     0.900000E-01   1.00800           0
      7916 MEMB     53       POPC     C214     CTL2    -0.180000       12.0110           0
      7917 MEMB     53       POPC     H14R     HAL2     0.900000E-01   1.00800           0
      7918 MEMB     53       POPC     H14S     HAL2     0.900000E-01   1.00800           0
      7919 MEMB     53       POPC     C215     CTL2    -0.180000       12.0110           0
      7920 MEMB     53       POPC     H15R     HAL2     0.900000E-01   1.00800           0
      7921 MEMB     53       POPC     H15S     HAL2     0.900000E-01   1.00800           0
      7922 MEMB     53       POPC     C216     CTL2    -0.180000       12.0110           0
      7923 MEMB     53       POPC     H16R     HAL2     0.900000E-01   1.00800           0
      7924 MEMB     53       POPC     H16S     HAL2     0.900000E-01   1.00800           0
      7925 MEMB     53       POPC     C217     CTL2    -0.180000       12.0110           0
      7926 MEMB     53       POPC     H17R     HAL2     0.900000E-01   1.00800           0
      7927 MEMB     53       POPC     H17S     HAL2     0.900000E-01   1.00800           0
      7928 MEMB     53       POPC     C218     CTL3    -0.270000       12.0110           0
      7929 MEMB     53       POPC     H18R     HAL3     0.900000E-01   1.00800           0
      7930 MEMB     53       POPC     H18S     HAL3     0.900000E-01   1.00800           0
      7931 MEMB     53       POPC     H18T     HAL3     0.900000E-01   1.00800           0
      7932 MEMB     53       POPC     C33      CTL2    -0.180000       12.0110           0
      7933 MEMB     53       POPC     H3X      HAL2     0.900000E-01   1.00800           0
      7934 MEMB     53       POPC     H3Y      HAL2     0.900000E-01   1.00800           0
      7935 MEMB     53       POPC     C34      CTL2    -0.180000       12.0110           0
      7936 MEMB     53       POPC     H4X      HAL2     0.900000E-01   1.00800           0
      7937 MEMB     53       POPC     H4Y      HAL2     0.900000E-01   1.00800           0
      7938 MEMB     53       POPC     C35      CTL2    -0.180000       12.0110           0
      7939 MEMB     53       POPC     H5X      HAL2     0.900000E-01   1.00800           0
      7940 MEMB     53       POPC     H5Y      HAL2     0.900000E-01   1.00800           0
      7941 MEMB     53       POPC     C36      CTL2    -0.180000       12.0110           0
      7942 MEMB     53       POPC     H6X      HAL2     0.900000E-01   1.00800           0
      7943 MEMB     53       POPC     H6Y      HAL2     0.900000E-01   1.00800           0
      7944 MEMB     53       POPC     C37      CTL2    -0.180000       12.0110           0
      7945 MEMB     53       POPC     H7X      HAL2     0.900000E-01   1.00800           0
      7946 MEMB     53       POPC     H7Y      HAL2     0.900000E-01   1.00800           0
      7947 MEMB     53       POPC     C38      CTL2    -0.180000       12.0110           0
      7948 MEMB     53       POPC     H8X      HAL2     0.900000E-01   1.00800           0
      7949 MEMB     53       POPC     H8Y      HAL2     0.900000E-01   1.00800           0
      7950 MEMB     53       POPC     C39      CTL2    -0.180000       12.0110           0
      7951 MEMB     53       POPC     H9X      HAL2     0.900000E-01   1.00800           0
      7952 MEMB     53       POPC     H9Y      HAL2     0.900000E-01   1.00800           0
      7953 MEMB     53       POPC     C310     CTL2    -0.180000       12.0110           0
      7954 MEMB     53       POPC     H10X     HAL2     0.900000E-01   1.00800           0
      7955 MEMB     53       POPC     H10Y     HAL2     0.900000E-01   1.00800           0
      7956 MEMB     53       POPC     C311     CTL2    -0.180000       12.0110           0
      7957 MEMB     53       POPC     H11X     HAL2     0.900000E-01   1.00800           0
      7958 MEMB     53       POPC     H11Y     HAL2     0.900000E-01   1.00800           0
      7959 MEMB     53       POPC     C312     CTL2    -0.180000       12.0110           0
      7960 MEMB     53       POPC     H12X     HAL2     0.900000E-01   1.00800           0
      7961 MEMB     53       POPC     H12Y     HAL2     0.900000E-01   1.00800           0
      7962 MEMB     53       POPC     C313     CTL2    -0.180000       12.0110           0
      7963 MEMB     53       POPC     H13X     HAL2     0.900000E-01   1.00800           0
      7964 MEMB     53       POPC     H13Y     HAL2     0.900000E-01   1.00800           0
      7965 MEMB     53       POPC     C314     CTL2    -0.180000       12.0110           0
      7966 MEMB     53       POPC     H14X     HAL2     0.900000E-01   1.00800           0
      7967 MEMB     53       POPC     H14Y     HAL2     0.900000E-01   1.00800           0
      7968 MEMB     53       POPC     C315     CTL2    -0.180000       12.0110           0
      7969 MEMB     53       POPC     H15X     HAL2     0.900000E-01   1.00800           0
      7970 MEMB     53       POPC     H15Y     HAL2     0.900000E-01   1.00800           0
      7971 MEMB     53       POPC     C316     CTL3    -0.270000       12.0110           0
      7972 MEMB     53       POPC     H16X     HAL3     0.900000E-01   1.00800           0
      7973 MEMB     53       POPC     H16Y     HAL3     0.900000E-01   1.00800           0
      7974 MEMB     53       POPC     H16Z     HAL3     0.900000E-01   1.00800           0
      7975 MEMB     54       POPC     N        NTL     -0.600000       14.0070           0
      7976 MEMB     54       POPC     C12      CTL2    -0.100000       12.0110           0
      7977 MEMB     54       POPC     H12A     HL       0.250000       1.00800           0
      7978 MEMB     54       POPC     H12B     HL       0.250000       1.00800           0
      7979 MEMB     54       POPC     C13      CTL5    -0.350000       12.0110           0
      7980 MEMB     54       POPC     H13A     HL       0.250000       1.00800           0
      7981 MEMB     54       POPC     H13B     HL       0.250000       1.00800           0
      7982 MEMB     54       POPC     H13C     HL       0.250000       1.00800           0
      7983 MEMB     54       POPC     C14      CTL5    -0.350000       12.0110           0
      7984 MEMB     54       POPC     H14A     HL       0.250000       1.00800           0
      7985 MEMB     54       POPC     H14B     HL       0.250000       1.00800           0
      7986 MEMB     54       POPC     H14C     HL       0.250000       1.00800           0
      7987 MEMB     54       POPC     C15      CTL5    -0.350000       12.0110           0
      7988 MEMB     54       POPC     H15A     HL       0.250000       1.00800           0
      7989 MEMB     54       POPC     H15B     HL       0.250000       1.00800           0
      7990 MEMB     54       POPC     H15C     HL       0.250000       1.00800           0
      7991 MEMB     54       POPC     C11      CTL2    -0.800000E-01   12.0110           0
      7992 MEMB     54       POPC     H11A     HAL2     0.900000E-01   1.00800           0
      7993 MEMB     54       POPC     H11B     HAL2     0.900000E-01   1.00800           0
      7994 MEMB     54       POPC     P        PL        1.50000       30.9740           0
      7995 MEMB     54       POPC     O13      O2L     -0.780000       15.9994           0
      7996 MEMB     54       POPC     O14      O2L     -0.780000       15.9994           0
      7997 MEMB     54       POPC     O12      OSLP    -0.570000       15.9994           0
      7998 MEMB     54       POPC     O11      OSLP    -0.570000       15.9994           0
      7999 MEMB     54       POPC     C1       CTL2    -0.800000E-01   12.0110           0
      8000 MEMB     54       POPC     HA       HAL2     0.900000E-01   1.00800           0
      8001 MEMB     54       POPC     HB       HAL2     0.900000E-01   1.00800           0
      8002 MEMB     54       POPC     C2       CTL1     0.170000       12.0110           0
      8003 MEMB     54       POPC     HS       HAL1     0.900000E-01   1.00800           0
      8004 MEMB     54       POPC     O21      OSL     -0.490000       15.9994           0
      8005 MEMB     54       POPC     C21      CL       0.900000       12.0110           0
      8006 MEMB     54       POPC     O22      OBL     -0.630000       15.9994           0
      8007 MEMB     54       POPC     C22      CTL2    -0.220000       12.0110           0
      8008 MEMB     54       POPC     H2R      HAL2     0.900000E-01   1.00800           0
      8009 MEMB     54       POPC     H2S      HAL2     0.900000E-01   1.00800           0
      8010 MEMB     54       POPC     C3       CTL2     0.800000E-01   12.0110           0
      8011 MEMB     54       POPC     HX       HAL2     0.900000E-01   1.00800           0
      8012 MEMB     54       POPC     HY       HAL2     0.900000E-01   1.00800           0
      8013 MEMB     54       POPC     O31      OSL     -0.490000       15.9994           0
      8014 MEMB     54       POPC     C31      CL       0.900000       12.0110           0
      8015 MEMB     54       POPC     O32      OBL     -0.630000       15.9994           0
      8016 MEMB     54       POPC     C32      CTL2    -0.220000       12.0110           0
      8017 MEMB     54       POPC     H2X      HAL2     0.900000E-01   1.00800           0
      8018 MEMB     54       POPC     H2Y      HAL2     0.900000E-01   1.00800           0
      8019 MEMB     54       POPC     C23      CTL2    -0.180000       12.0110           0
      8020 MEMB     54       POPC     H3R      HAL2     0.900000E-01   1.00800           0
      8021 MEMB     54       POPC     H3S      HAL2     0.900000E-01   1.00800           0
      8022 MEMB     54       POPC     C24      CTL2    -0.180000       12.0110           0
      8023 MEMB     54       POPC     H4R      HAL2     0.900000E-01   1.00800           0
      8024 MEMB     54       POPC     H4S      HAL2     0.900000E-01   1.00800           0
      8025 MEMB     54       POPC     C25      CTL2    -0.180000       12.0110           0
      8026 MEMB     54       POPC     H5R      HAL2     0.900000E-01   1.00800           0
      8027 MEMB     54       POPC     H5S      HAL2     0.900000E-01   1.00800           0
      8028 MEMB     54       POPC     C26      CTL2    -0.180000       12.0110           0
      8029 MEMB     54       POPC     H6R      HAL2     0.900000E-01   1.00800           0
      8030 MEMB     54       POPC     H6S      HAL2     0.900000E-01   1.00800           0
      8031 MEMB     54       POPC     C27      CTL2    -0.180000       12.0110           0
      8032 MEMB     54       POPC     H7R      HAL2     0.900000E-01   1.00800           0
      8033 MEMB     54       POPC     H7S      HAL2     0.900000E-01   1.00800           0
      8034 MEMB     54       POPC     C28      CTL2    -0.180000       12.0110           0
      8035 MEMB     54       POPC     H8R      HAL2     0.900000E-01   1.00800           0
      8036 MEMB     54       POPC     H8S      HAL2     0.900000E-01   1.00800           0
      8037 MEMB     54       POPC     C29      CEL1    -0.150000       12.0110           0
      8038 MEMB     54       POPC     H91      HEL1     0.150000       1.00800           0
      8039 MEMB     54       POPC     C210     CEL1    -0.150000       12.0110           0
      8040 MEMB     54       POPC     H101     HEL1     0.150000       1.00800           0
      8041 MEMB     54       POPC     C211     CTL2    -0.180000       12.0110           0
      8042 MEMB     54       POPC     H11R     HAL2     0.900000E-01   1.00800           0
      8043 MEMB     54       POPC     H11S     HAL2     0.900000E-01   1.00800           0
      8044 MEMB     54       POPC     C212     CTL2    -0.180000       12.0110           0
      8045 MEMB     54       POPC     H12R     HAL2     0.900000E-01   1.00800           0
      8046 MEMB     54       POPC     H12S     HAL2     0.900000E-01   1.00800           0
      8047 MEMB     54       POPC     C213     CTL2    -0.180000       12.0110           0
      8048 MEMB     54       POPC     H13R     HAL2     0.900000E-01   1.00800           0
      8049 MEMB     54       POPC     H13S     HAL2     0.900000E-01   1.00800           0
      8050 MEMB     54       POPC     C214     CTL2    -0.180000       12.0110           0
      8051 MEMB     54       POPC     H14R     HAL2     0.900000E-01   1.00800           0
      8052 MEMB     54       POPC     H14S     HAL2     0.900000E-01   1.00800           0
      8053 MEMB     54       POPC     C215     CTL2    -0.180000       12.0110           0
      8054 MEMB     54       POPC     H15R     HAL2     0.900000E-01   1.00800           0
      8055 MEMB     54       POPC     H15S     HAL2     0.900000E-01   1.00800           0
      8056 MEMB     54       POPC     C216     CTL2    -0.180000       12.0110           0
      8057 MEMB     54       POPC     H16R     HAL2     0.900000E-01   1.00800           0
      8058 MEMB     54       POPC     H16S     HAL2     0.900000E-01   1.00800           0
      8059 MEMB     54       POPC     C217     CTL2    -0.180000       12.0110           0
      8060 MEMB     54       POPC     H17R     HAL2     0.900000E-01   1.00800           0
      8061 MEMB     54       POPC     H17S     HAL2     0.900000E-01   1.00800           0
      8062 MEMB     54       POPC     C218     CTL3    -0.270000       12.0110           0
      8063 MEMB     54       POPC     H18R     HAL3     0.900000E-01   1.00800           0
      8064 MEMB     54       POPC     H18S     HAL3     0.900000E-01   1.00800           0
      8065 MEMB     54       POPC     H18T     HAL3     0.900000E-01   1.00800           0
      8066 MEMB     54       POPC     C33      CTL2    -0.180000       12.0110           0
      8067 MEMB     54       POPC     H3X      HAL2     0.900000E-01   1.00800           0
      8068 MEMB     54       POPC     H3Y      HAL2     0.900000E-01   1.00800           0
      8069 MEMB     54       POPC     C34      CTL2    -0.180000       12.0110           0
      8070 MEMB     54       POPC     H4X      HAL2     0.900000E-01   1.00800           0
      8071 MEMB     54       POPC     H4Y      HAL2     0.900000E-01   1.00800           0
      8072 MEMB     54       POPC     C35      CTL2    -0.180000       12.0110           0
      8073 MEMB     54       POPC     H5X      HAL2     0.900000E-01   1.00800           0
      8074 MEMB     54       POPC     H5Y      HAL2     0.900000E-01   1.00800           0
      8075 MEMB     54       POPC     C36      CTL2    -0.180000       12.0110           0
      8076 MEMB     54       POPC     H6X      HAL2     0.900000E-01   1.00800           0
      8077 MEMB     54       POPC     H6Y      HAL2     0.900000E-01   1.00800           0
      8078 MEMB     54       POPC     C37      CTL2    -0.180000       12.0110           0
      8079 MEMB     54       POPC     H7X      HAL2     0.900000E-01   1.00800           0
      8080 MEMB     54       POPC     H7Y      HAL2     0.900000E-01   1.00800           0
      8081 MEMB     54       POPC     C38      CTL2    -0.180000       12.0110           0
      8082 MEMB     54       POPC     H8X      HAL2     0.900000E-01   1.00800           0
      8083 MEMB     54       POPC     H8Y      HAL2     0.900000E-01   1.00800           0
      8084 MEMB     54       POPC     C39      CTL2    -0.180000       12.0110           0
      8085 MEMB     54       POPC     H9X      HAL2     0.900000E-01   1.00800           0
      8086 MEMB     54       POPC     H9Y      HAL2     0.900000E-01   1.00800           0
      8087 MEMB     54       POPC     C310     CTL2    -0.180000       12.0110           0
      8088 MEMB     54       POPC     H10X     HAL2     0.900000E-01   1.00800           0
      8089 MEMB     54       POPC     H10Y     HAL2     0.900000E-01   1.00800           0
      8090 MEMB     54       POPC     C311     CTL2    -0.180000       12.0110           0
      8091 MEMB     54       POPC     H11X     HAL2     0.900000E-01   1.00800           0
      8092 MEMB     54       POPC     H11Y     HAL2     0.900000E-01   1.00800           0
      8093 MEMB     54       POPC     C312     CTL2    -0.180000       12.0110           0
      8094 MEMB     54       POPC     H12X     HAL2     0.900000E-01   1.00800           0
      8095 MEMB     54       POPC     H12Y     HAL2     0.900000E-01   1.00800           0
      8096 MEMB     54       POPC     C313     CTL2    -0.180000       12.0110           0
      8097 MEMB     54       POPC     H13X     HAL2     0.900000E-01   1.00800           0
      8098 MEMB     54       POPC     H13Y     HAL2     0.900000E-01   1.00800           0
      8099 MEMB     54       POPC     C314     CTL2    -0.180000       12.0110           0
      8100 MEMB     54       POPC     H14X     HAL2     0.900000E-01   1.00800           0
      8101 MEMB     54       POPC     H14Y     HAL2     0.900000E-01   1.00800           0
      8102 MEMB     54       POPC     C315     CTL2    -0.180000       12.0110           0
      8103 MEMB     54       POPC     H15X     HAL2     0.900000E-01   1.00800           0
      8104 MEMB     54       POPC     H15Y     HAL2     0.900000E-01   1.00800           0
      8105 MEMB     54       POPC     C316     CTL3    -0.270000       12.0110           0
      8106 MEMB     54       POPC     H16X     HAL3     0.900000E-01   1.00800           0
      8107 MEMB     54       POPC     H16Y     HAL3     0.900000E-01   1.00800           0
      8108 MEMB     54       POPC     H16Z     HAL3     0.900000E-01   1.00800           0
      8109 MEMB     55       POPC     N        NTL     -0.600000       14.0070           0
      8110 MEMB     55       POPC     C12      CTL2    -0.100000       12.0110           0
      8111 MEMB     55       POPC     H12A     HL       0.250000       1.00800           0
      8112 MEMB     55       POPC     H12B     HL       0.250000       1.00800           0
      8113 MEMB     55       POPC     C13      CTL5    -0.350000       12.0110           0
      8114 MEMB     55       POPC     H13A     HL       0.250000       1.00800           0
      8115 MEMB     55       POPC     H13B     HL       0.250000       1.00800           0
      8116 MEMB     55       POPC     H13C     HL       0.250000       1.00800           0
      8117 MEMB     55       POPC     C14      CTL5    -0.350000       12.0110           0
      8118 MEMB     55       POPC     H14A     HL       0.250000       1.00800           0
      8119 MEMB     55       POPC     H14B     HL       0.250000       1.00800           0
      8120 MEMB     55       POPC     H14C     HL       0.250000       1.00800           0
      8121 MEMB     55       POPC     C15      CTL5    -0.350000       12.0110           0
      8122 MEMB     55       POPC     H15A     HL       0.250000       1.00800           0
      8123 MEMB     55       POPC     H15B     HL       0.250000       1.00800           0
      8124 MEMB     55       POPC     H15C     HL       0.250000       1.00800           0
      8125 MEMB     55       POPC     C11      CTL2    -0.800000E-01   12.0110           0
      8126 MEMB     55       POPC     H11A     HAL2     0.900000E-01   1.00800           0
      8127 MEMB     55       POPC     H11B     HAL2     0.900000E-01   1.00800           0
      8128 MEMB     55       POPC     P        PL        1.50000       30.9740           0
      8129 MEMB     55       POPC     O13      O2L     -0.780000       15.9994           0
      8130 MEMB     55       POPC     O14      O2L     -0.780000       15.9994           0
      8131 MEMB     55       POPC     O12      OSLP    -0.570000       15.9994           0
      8132 MEMB     55       POPC     O11      OSLP    -0.570000       15.9994           0
      8133 MEMB     55       POPC     C1       CTL2    -0.800000E-01   12.0110           0
      8134 MEMB     55       POPC     HA       HAL2     0.900000E-01   1.00800           0
      8135 MEMB     55       POPC     HB       HAL2     0.900000E-01   1.00800           0
      8136 MEMB     55       POPC     C2       CTL1     0.170000       12.0110           0
      8137 MEMB     55       POPC     HS       HAL1     0.900000E-01   1.00800           0
      8138 MEMB     55       POPC     O21      OSL     -0.490000       15.9994           0
      8139 MEMB     55       POPC     C21      CL       0.900000       12.0110           0
      8140 MEMB     55       POPC     O22      OBL     -0.630000       15.9994           0
      8141 MEMB     55       POPC     C22      CTL2    -0.220000       12.0110           0
      8142 MEMB     55       POPC     H2R      HAL2     0.900000E-01   1.00800           0
      8143 MEMB     55       POPC     H2S      HAL2     0.900000E-01   1.00800           0
      8144 MEMB     55       POPC     C3       CTL2     0.800000E-01   12.0110           0
      8145 MEMB     55       POPC     HX       HAL2     0.900000E-01   1.00800           0
      8146 MEMB     55       POPC     HY       HAL2     0.900000E-01   1.00800           0
      8147 MEMB     55       POPC     O31      OSL     -0.490000       15.9994           0
      8148 MEMB     55       POPC     C31      CL       0.900000       12.0110           0
      8149 MEMB     55       POPC     O32      OBL     -0.630000       15.9994           0
      8150 MEMB     55       POPC     C32      CTL2    -0.220000       12.0110           0
      8151 MEMB     55       POPC     H2X      HAL2     0.900000E-01   1.00800           0
      8152 MEMB     55       POPC     H2Y      HAL2     0.900000E-01   1.00800           0
      8153 MEMB     55       POPC     C23      CTL2    -0.180000       12.0110           0
      8154 MEMB     55       POPC     H3R      HAL2     0.900000E-01   1.00800           0
      8155 MEMB     55       POPC     H3S      HAL2     0.900000E-01   1.00800           0
      8156 MEMB     55       POPC     C24      CTL2    -0.180000       12.0110           0
      8157 MEMB     55       POPC     H4R      HAL2     0.900000E-01   1.00800           0
      8158 MEMB     55       POPC     H4S      HAL2     0.900000E-01   1.00800           0
      8159 MEMB     55       POPC     C25      CTL2    -0.180000       12.0110           0
      8160 MEMB     55       POPC     H5R      HAL2     0.900000E-01   1.00800           0
      8161 MEMB     55       POPC     H5S      HAL2     0.900000E-01   1.00800           0
      8162 MEMB     55       POPC     C26      CTL2    -0.180000       12.0110           0
      8163 MEMB     55       POPC     H6R      HAL2     0.900000E-01   1.00800           0
      8164 MEMB     55       POPC     H6S      HAL2     0.900000E-01   1.00800           0
      8165 MEMB     55       POPC     C27      CTL2    -0.180000       12.0110           0
      8166 MEMB     55       POPC     H7R      HAL2     0.900000E-01   1.00800           0
      8167 MEMB     55       POPC     H7S      HAL2     0.900000E-01   1.00800           0
      8168 MEMB     55       POPC     C28      CTL2    -0.180000       12.0110           0
      8169 MEMB     55       POPC     H8R      HAL2     0.900000E-01   1.00800           0
      8170 MEMB     55       POPC     H8S      HAL2     0.900000E-01   1.00800           0
      8171 MEMB     55       POPC     C29      CEL1    -0.150000       12.0110           0
      8172 MEMB     55       POPC     H91      HEL1     0.150000       1.00800           0
      8173 MEMB     55       POPC     C210     CEL1    -0.150000       12.0110           0
      8174 MEMB     55       POPC     H101     HEL1     0.150000       1.00800           0
      8175 MEMB     55       POPC     C211     CTL2    -0.180000       12.0110           0
      8176 MEMB     55       POPC     H11R     HAL2     0.900000E-01   1.00800           0
      8177 MEMB     55       POPC     H11S     HAL2     0.900000E-01   1.00800           0
      8178 MEMB     55       POPC     C212     CTL2    -0.180000       12.0110           0
      8179 MEMB     55       POPC     H12R     HAL2     0.900000E-01   1.00800           0
      8180 MEMB     55       POPC     H12S     HAL2     0.900000E-01   1.00800           0
      8181 MEMB     55       POPC     C213     CTL2    -0.180000       12.0110           0
      8182 MEMB     55       POPC     H13R     HAL2     0.900000E-01   1.00800           0
      8183 MEMB     55       POPC     H13S     HAL2     0.900000E-01   1.00800           0
      8184 MEMB     55       POPC     C214     CTL2    -0.180000       12.0110           0
      8185 MEMB     55       POPC     H14R     HAL2     0.900000E-01   1.00800           0
      8186 MEMB     55       POPC     H14S     HAL2     0.900000E-01   1.00800           0
      8187 MEMB     55       POPC     C215     CTL2    -0.180000       12.0110           0
      8188 MEMB     55       POPC     H15R     HAL2     0.900000E-01   1.00800           0
      8189 MEMB     55       POPC     H15S     HAL2     0.900000E-01   1.00800           0
      8190 MEMB     55       POPC     C216     CTL2    -0.180000       12.0110           0
      8191 MEMB     55       POPC     H16R     HAL2     0.900000E-01   1.00800           0
      8192 MEMB     55       POPC     H16S     HAL2     0.900000E-01   1.00800           0
      8193 MEMB     55       POPC     C217     CTL2    -0.180000       12.0110           0
      8194 MEMB     55       POPC     H17R     HAL2     0.900000E-01   1.00800           0
      8195 MEMB     55       POPC     H17S     HAL2     0.900000E-01   1.00800           0
      8196 MEMB     55       POPC     C218     CTL3    -0.270000       12.0110           0
      8197 MEMB     55       POPC     H18R     HAL3     0.900000E-01   1.00800           0
      8198 MEMB     55       POPC     H18S     HAL3     0.900000E-01   1.00800           0
      8199 MEMB     55       POPC     H18T     HAL3     0.900000E-01   1.00800           0
      8200 MEMB     55       POPC     C33      CTL2    -0.180000       12.0110           0
      8201 MEMB     55       POPC     H3X      HAL2     0.900000E-01   1.00800           0
      8202 MEMB     55       POPC     H3Y      HAL2     0.900000E-01   1.00800           0
      8203 MEMB     55       POPC     C34      CTL2    -0.180000       12.0110           0
      8204 MEMB     55       POPC     H4X      HAL2     0.900000E-01   1.00800           0
      8205 MEMB     55       POPC     H4Y      HAL2     0.900000E-01   1.00800           0
      8206 MEMB     55       POPC     C35      CTL2    -0.180000       12.0110           0
      8207 MEMB     55       POPC     H5X      HAL2     0.900000E-01   1.00800           0
      8208 MEMB     55       POPC     H5Y      HAL2     0.900000E-01   1.00800           0
      8209 MEMB     55       POPC     C36      CTL2    -0.180000       12.0110           0
      8210 MEMB     55       POPC     H6X      HAL2     0.900000E-01   1.00800           0
      8211 MEMB     55       POPC     H6Y      HAL2     0.900000E-01   1.00800           0
      8212 MEMB     55       POPC     C37      CTL2    -0.180000       12.0110           0
      8213 MEMB     55       POPC     H7X      HAL2     0.900000E-01   1.00800           0
      8214 MEMB     55       POPC     H7Y      HAL2     0.900000E-01   1.00800           0
      8215 MEMB     55       POPC     C38      CTL2    -0.180000       12.0110           0
      8216 MEMB     55       POPC     H8X      HAL2     0.900000E-01   1.00800           0
      8217 MEMB     55       POPC     H8Y      HAL2     0.900000E-01   1.00800           0
      8218 MEMB     55       POPC     C39      CTL2    -0.180000       12.0110           0
      8219 MEMB     55       POPC     H9X      HAL2     0.900000E-01   1.00800           0
      8220 MEMB     55       POPC     H9Y      HAL2     0.900000E-01   1.00800           0
      8221 MEMB     55       POPC     C310     CTL2    -0.180000       12.0110           0
      8222 MEMB     55       POPC     H10X     HAL2     0.900000E-01   1.00800           0
      8223 MEMB     55       POPC     H10Y     HAL2     0.900000E-01   1.00800           0
      8224 MEMB     55       POPC     C311     CTL2    -0.180000       12.0110           0
      8225 MEMB     55       POPC     H11X     HAL2     0.900000E-01   1.00800           0
      8226 MEMB     55       POPC     H11Y     HAL2     0.900000E-01   1.00800           0
      8227 MEMB     55       POPC     C312     CTL2    -0.180000       12.0110           0
      8228 MEMB     55       POPC     H12X     HAL2     0.900000E-01   1.00800           0
      8229 MEMB     55       POPC     H12Y     HAL2     0.900000E-01   1.00800           0
      8230 MEMB     55       POPC     C313     CTL2    -0.180000       12.0110           0
      8231 MEMB     55       POPC     H13X     HAL2     0.900000E-01   1.00800           0
      8232 MEMB     55       POPC     H13Y     HAL2     0.900000E-01   1.00800           0
      8233 MEMB     55       POPC     C314     CTL2    -0.180000       12.0110           0
      8234 MEMB     55       POPC     H14X     HAL2     0.900000E-01   1.00800           0
      8235 MEMB     55       POPC     H14Y     HAL2     0.900000E-01   1.00800           0
      8236 MEMB     55       POPC     C315     CTL2    -0.180000       12.0110           0
      8237 MEMB     55       POPC     H15X     HAL2     0.900000E-01   1.00800           0
      8238 MEMB     55       POPC     H15Y     HAL2     0.900000E-01   1.00800           0
      8239 MEMB     55       POPC     C316     CTL3    -0.270000       12.0110           0
      8240 MEMB     55       POPC     H16X     HAL3     0.900000E-01   1.00800           0
      8241 MEMB     55       POPC     H16Y     HAL3     0.900000E-01   1.00800           0
      8242 MEMB     55       POPC     H16Z     HAL3     0.900000E-01   1.00800           0
      8243 MEMB     56       POPC     N        NTL     -0.600000       14.0070           0
      8244 MEMB     56       POPC     C12      CTL2    -0.100000       12.0110           0
      8245 MEMB     56       POPC     H12A     HL       0.250000       1.00800           0
      8246 MEMB     56       POPC     H12B     HL       0.250000       1.00800           0
      8247 MEMB     56       POPC     C13      CTL5    -0.350000       12.0110           0
      8248 MEMB     56       POPC     H13A     HL       0.250000       1.00800           0
      8249 MEMB     56       POPC     H13B     HL       0.250000       1.00800           0
      8250 MEMB     56       POPC     H13C     HL       0.250000       1.00800           0
      8251 MEMB     56       POPC     C14      CTL5    -0.350000       12.0110           0
      8252 MEMB     56       POPC     H14A     HL       0.250000       1.00800           0
      8253 MEMB     56       POPC     H14B     HL       0.250000       1.00800           0
      8254 MEMB     56       POPC     H14C     HL       0.250000       1.00800           0
      8255 MEMB     56       POPC     C15      CTL5    -0.350000       12.0110           0
      8256 MEMB     56       POPC     H15A     HL       0.250000       1.00800           0
      8257 MEMB     56       POPC     H15B     HL       0.250000       1.00800           0
      8258 MEMB     56       POPC     H15C     HL       0.250000       1.00800           0
      8259 MEMB     56       POPC     C11      CTL2    -0.800000E-01   12.0110           0
      8260 MEMB     56       POPC     H11A     HAL2     0.900000E-01   1.00800           0
      8261 MEMB     56       POPC     H11B     HAL2     0.900000E-01   1.00800           0
      8262 MEMB     56       POPC     P        PL        1.50000       30.9740           0
      8263 MEMB     56       POPC     O13      O2L     -0.780000       15.9994           0
      8264 MEMB     56       POPC     O14      O2L     -0.780000       15.9994           0
      8265 MEMB     56       POPC     O12      OSLP    -0.570000       15.9994           0
      8266 MEMB     56       POPC     O11      OSLP    -0.570000       15.9994           0
      8267 MEMB     56       POPC     C1       CTL2    -0.800000E-01   12.0110           0
      8268 MEMB     56       POPC     HA       HAL2     0.900000E-01   1.00800           0
      8269 MEMB     56       POPC     HB       HAL2     0.900000E-01   1.00800           0
      8270 MEMB     56       POPC     C2       CTL1     0.170000       12.0110           0
      8271 MEMB     56       POPC     HS       HAL1     0.900000E-01   1.00800           0
      8272 MEMB     56       POPC     O21      OSL     -0.490000       15.9994           0
      8273 MEMB     56       POPC     C21      CL       0.900000       12.0110           0
      8274 MEMB     56       POPC     O22      OBL     -0.630000       15.9994           0
      8275 MEMB     56       POPC     C22      CTL2    -0.220000       12.0110           0
      8276 MEMB     56       POPC     H2R      HAL2     0.900000E-01   1.00800           0
      8277 MEMB     56       POPC     H2S      HAL2     0.900000E-01   1.00800           0
      8278 MEMB     56       POPC     C3       CTL2     0.800000E-01   12.0110           0
      8279 MEMB     56       POPC     HX       HAL2     0.900000E-01   1.00800           0
      8280 MEMB     56       POPC     HY       HAL2     0.900000E-01   1.00800           0
      8281 MEMB     56       POPC     O31      OSL     -0.490000       15.9994           0
      8282 MEMB     56       POPC     C31      CL       0.900000       12.0110           0
      8283 MEMB     56       POPC     O32      OBL     -0.630000       15.9994           0
      8284 MEMB     56       POPC     C32      CTL2    -0.220000       12.0110           0
      8285 MEMB     56       POPC     H2X      HAL2     0.900000E-01   1.00800           0
      8286 MEMB     56       POPC     H2Y      HAL2     0.900000E-01   1.00800           0
      8287 MEMB     56       POPC     C23      CTL2    -0.180000       12.0110           0
      8288 MEMB     56       POPC     H3R      HAL2     0.900000E-01   1.00800           0
      8289 MEMB     56       POPC     H3S      HAL2     0.900000E-01   1.00800           0
      8290 MEMB     56       POPC     C24      CTL2    -0.180000       12.0110           0
      8291 MEMB     56       POPC     H4R      HAL2     0.900000E-01   1.00800           0
      8292 MEMB     56       POPC     H4S      HAL2     0.900000E-01   1.00800           0
      8293 MEMB     56       POPC     C25      CTL2    -0.180000       12.0110           0
      8294 MEMB     56       POPC     H5R      HAL2     0.900000E-01   1.00800           0
      8295 MEMB     56       POPC     H5S      HAL2     0.900000E-01   1.00800           0
      8296 MEMB     56       POPC     C26      CTL2    -0.180000       12.0110           0
      8297 MEMB     56       POPC     H6R      HAL2     0.900000E-01   1.00800           0
      8298 MEMB     56       POPC     H6S      HAL2     0.900000E-01   1.00800           0
      8299 MEMB     56       POPC     C27      CTL2    -0.180000       12.0110           0
      8300 MEMB     56       POPC     H7R      HAL2     0.900000E-01   1.00800           0
      8301 MEMB     56       POPC     H7S      HAL2     0.900000E-01   1.00800           0
      8302 MEMB     56       POPC     C28      CTL2    -0.180000       12.0110           0
      8303 MEMB     56       POPC     H8R      HAL2     0.900000E-01   1.00800           0
      8304 MEMB     56       POPC     H8S      HAL2     0.900000E-01   1.00800           0
      8305 MEMB     56       POPC     C29      CEL1    -0.150000       12.0110           0
      8306 MEMB     56       POPC     H91      HEL1     0.150000       1.00800           0
      8307 MEMB     56       POPC     C210     CEL1    -0.150000       12.0110           0
      8308 MEMB     56       POPC     H101     HEL1     0.150000       1.00800           0
      8309 MEMB     56       POPC     C211     CTL2    -0.180000       12.0110           0
      8310 MEMB     56       POPC     H11R     HAL2     0.900000E-01   1.00800           0
      8311 MEMB     56       POPC     H11S     HAL2     0.900000E-01   1.00800           0
      8312 MEMB     56       POPC     C212     CTL2    -0.180000       12.0110           0
      8313 MEMB     56       POPC     H12R     HAL2     0.900000E-01   1.00800           0
      8314 MEMB     56       POPC     H12S     HAL2     0.900000E-01   1.00800           0
      8315 MEMB     56       POPC     C213     CTL2    -0.180000       12.0110           0
      8316 MEMB     56       POPC     H13R     HAL2     0.900000E-01   1.00800           0
      8317 MEMB     56       POPC     H13S     HAL2     0.900000E-01   1.00800           0
      8318 MEMB     56       POPC     C214     CTL2    -0.180000       12.0110           0
      8319 MEMB     56       POPC     H14R     HAL2     0.900000E-01   1.00800           0
      8320 MEMB     56       POPC     H14S     HAL2     0.900000E-01   1.00800           0
      8321 MEMB     56       POPC     C215     CTL2    -0.180000       12.0110           0
      8322 MEMB     56       POPC     H15R     HAL2     0.900000E-01   1.00800           0
      8323 MEMB     56       POPC     H15S     HAL2     0.900000E-01   1.00800           0
      8324 MEMB     56       POPC     C216     CTL2    -0.180000       12.0110           0
      8325 MEMB     56       POPC     H16R     HAL2     0.900000E-01   1.00800           0
      8326 MEMB     56       POPC     H16S     HAL2     0.900000E-01   1.00800           0
      8327 MEMB     56       POPC     C217     CTL2    -0.180000       12.0110           0
      8328 MEMB     56       POPC     H17R     HAL2     0.900000E-01   1.00800           0
      8329 MEMB     56       POPC     H17S     HAL2     0.900000E-01   1.00800           0
      8330 MEMB     56       POPC     C218     CTL3    -0.270000       12.0110           0
      8331 MEMB     56       POPC     H18R     HAL3     0.900000E-01   1.00800           0
      8332 MEMB     56       POPC     H18S     HAL3     0.900000E-01   1.00800           0
      8333 MEMB     56       POPC     H18T     HAL3     0.900000E-01   1.00800           0
      8334 MEMB     56       POPC     C33      CTL2    -0.180000       12.0110           0
      8335 MEMB     56       POPC     H3X      HAL2     0.900000E-01   1.00800           0
      8336 MEMB     56       POPC     H3Y      HAL2     0.900000E-01   1.00800           0
      8337 MEMB     56       POPC     C34      CTL2    -0.180000       12.0110           0
      8338 MEMB     56       POPC     H4X      HAL2     0.900000E-01   1.00800           0
      8339 MEMB     56       POPC     H4Y      HAL2     0.900000E-01   1.00800           0
      8340 MEMB     56       POPC     C35      CTL2    -0.180000       12.0110           0
      8341 MEMB     56       POPC     H5X      HAL2     0.900000E-01   1.00800           0
      8342 MEMB     56       POPC     H5Y      HAL2     0.900000E-01   1.00800           0
      8343 MEMB     56       POPC     C36      CTL2    -0.180000       12.0110           0
      8344 MEMB     56       POPC     H6X      HAL2     0.900000E-01   1.00800           0
      8345 MEMB     56       POPC     H6Y      HAL2     0.900000E-01   1.00800           0
      8346 MEMB     56       POPC     C37      CTL2    -0.180000       12.0110           0
      8347 MEMB     56       POPC     H7X      HAL2     0.900000E-01   1.00800           0
      8348 MEMB     56       POPC     H7Y      HAL2     0.900000E-01   1.00800           0
      8349 MEMB     56       POPC     C38      CTL2    -0.180000       12.0110           0
      8350 MEMB     56       POPC     H8X      HAL2     0.900000E-01   1.00800           0
      8351 MEMB     56       POPC     H8Y      HAL2     0.900000E-01   1.00800           0
      8352 MEMB     56       POPC     C39      CTL2    -0.180000       12.0110           0
      8353 MEMB     56       POPC     H9X      HAL2     0.900000E-01   1.00800           0
      8354 MEMB     56       POPC     H9Y      HAL2     0.900000E-01   1.00800           0
      8355 MEMB     56       POPC     C310     CTL2    -0.180000       12.0110           0
      8356 MEMB     56       POPC     H10X     HAL2     0.900000E-01   1.00800           0
      8357 MEMB     56       POPC     H10Y     HAL2     0.900000E-01   1.00800           0
      8358 MEMB     56       POPC     C311     CTL2    -0.180000       12.0110           0
      8359 MEMB     56       POPC     H11X     HAL2     0.900000E-01   1.00800           0
      8360 MEMB     56       POPC     H11Y     HAL2     0.900000E-01   1.00800           0
      8361 MEMB     56       POPC     C312     CTL2    -0.180000       12.0110           0
      8362 MEMB     56       POPC     H12X     HAL2     0.900000E-01   1.00800           0
      8363 MEMB     56       POPC     H12Y     HAL2     0.900000E-01   1.00800           0
      8364 MEMB     56       POPC     C313     CTL2    -0.180000       12.0110           0
      8365 MEMB     56       POPC     H13X     HAL2     0.900000E-01   1.00800           0
      8366 MEMB     56       POPC     H13Y     HAL2     0.900000E-01   1.00800           0
      8367 MEMB     56       POPC     C314     CTL2    -0.180000       12.0110           0
      8368 MEMB     56       POPC     H14X     HAL2     0.900000E-01   1.00800           0
      8369 MEMB     56       POPC     H14Y     HAL2     0.900000E-01   1.00800           0
      8370 MEMB     56       POPC     C315     CTL2    -0.180000       12.0110           0
      8371 MEMB     56       POPC     H15X     HAL2     0.900000E-01   1.00800           0
      8372 MEMB     56       POPC     H15Y     HAL2     0.900000E-01   1.00800           0
      8373 MEMB     56       POPC     C316     CTL3    -0.270000       12.0110           0
      8374 MEMB     56       POPC     H16X     HAL3     0.900000E-01   1.00800           0
      8375 MEMB     56       POPC     H16Y     HAL3     0.900000E-01   1.00800           0
      8376 MEMB     56       POPC     H16Z     HAL3     0.900000E-01   1.00800           0
      8377 MEMB     57       POPC     N        NTL     -0.600000       14.0070           0
      8378 MEMB     57       POPC     C12      CTL2    -0.100000       12.0110           0
      8379 MEMB     57       POPC     H12A     HL       0.250000       1.00800           0
      8380 MEMB     57       POPC     H12B     HL       0.250000       1.00800           0
      8381 MEMB     57       POPC     C13      CTL5    -0.350000       12.0110           0
      8382 MEMB     57       POPC     H13A     HL       0.250000       1.00800           0
      8383 MEMB     57       POPC     H13B     HL       0.250000       1.00800           0
      8384 MEMB     57       POPC     H13C     HL       0.250000       1.00800           0
      8385 MEMB     57       POPC     C14      CTL5    -0.350000       12.0110           0
      8386 MEMB     57       POPC     H14A     HL       0.250000       1.00800           0
      8387 MEMB     57       POPC     H14B     HL       0.250000       1.00800           0
      8388 MEMB     57       POPC     H14C     HL       0.250000       1.00800           0
      8389 MEMB     57       POPC     C15      CTL5    -0.350000       12.0110           0
      8390 MEMB     57       POPC     H15A     HL       0.250000       1.00800           0
      8391 MEMB     57       POPC     H15B     HL       0.250000       1.00800           0
      8392 MEMB     57       POPC     H15C     HL       0.250000       1.00800           0
      8393 MEMB     57       POPC     C11      CTL2    -0.800000E-01   12.0110           0
      8394 MEMB     57       POPC     H11A     HAL2     0.900000E-01   1.00800           0
      8395 MEMB     57       POPC     H11B     HAL2     0.900000E-01   1.00800           0
      8396 MEMB     57       POPC     P        PL        1.50000       30.9740           0
      8397 MEMB     57       POPC     O13      O2L     -0.780000       15.9994           0
      8398 MEMB     57       POPC     O14      O2L     -0.780000       15.9994           0
      8399 MEMB     57       POPC     O12      OSLP    -0.570000       15.9994           0
      8400 MEMB     57       POPC     O11      OSLP    -0.570000       15.9994           0
      8401 MEMB     57       POPC     C1       CTL2    -0.800000E-01   12.0110           0
      8402 MEMB     57       POPC     HA       HAL2     0.900000E-01   1.00800           0
      8403 MEMB     57       POPC     HB       HAL2     0.900000E-01   1.00800           0
      8404 MEMB     57       POPC     C2       CTL1     0.170000       12.0110           0
      8405 MEMB     57       POPC     HS       HAL1     0.900000E-01   1.00800           0
      8406 MEMB     57       POPC     O21      OSL     -0.490000       15.9994           0
      8407 MEMB     57       POPC     C21      CL       0.900000       12.0110           0
      8408 MEMB     57       POPC     O22      OBL     -0.630000       15.9994           0
      8409 MEMB     57       POPC     C22      CTL2    -0.220000       12.0110           0
      8410 MEMB     57       POPC     H2R      HAL2     0.900000E-01   1.00800           0
      8411 MEMB     57       POPC     H2S      HAL2     0.900000E-01   1.00800           0
      8412 MEMB     57       POPC     C3       CTL2     0.800000E-01   12.0110           0
      8413 MEMB     57       POPC     HX       HAL2     0.900000E-01   1.00800           0
      8414 MEMB     57       POPC     HY       HAL2     0.900000E-01   1.00800           0
      8415 MEMB     57       POPC     O31      OSL     -0.490000       15.9994           0
      8416 MEMB     57       POPC     C31      CL       0.900000       12.0110           0
      8417 MEMB     57       POPC     O32      OBL     -0.630000       15.9994           0
      8418 MEMB     57       POPC     C32      CTL2    -0.220000       12.0110           0
      8419 MEMB     57       POPC     H2X      HAL2     0.900000E-01   1.00800           0
      8420 MEMB     57       POPC     H2Y      HAL2     0.900000E-01   1.00800           0
      8421 MEMB     57       POPC     C23      CTL2    -0.180000       12.0110           0
      8422 MEMB     57       POPC     H3R      HAL2     0.900000E-01   1.00800           0
      8423 MEMB     57       POPC     H3S      HAL2     0.900000E-01   1.00800           0
      8424 MEMB     57       POPC     C24      CTL2    -0.180000       12.0110           0
      8425 MEMB     57       POPC     H4R      HAL2     0.900000E-01   1.00800           0
      8426 MEMB     57       POPC     H4S      HAL2     0.900000E-01   1.00800           0
      8427 MEMB     57       POPC     C25      CTL2    -0.180000       12.0110           0
      8428 MEMB     57       POPC     H5R      HAL2     0.900000E-01   1.00800           0
      8429 MEMB     57       POPC     H5S      HAL2     0.900000E-01   1.00800           0
      8430 MEMB     57       POPC     C26      CTL2    -0.180000       12.0110           0
      8431 MEMB     57       POPC     H6R      HAL2     0.900000E-01   1.00800           0
      8432 MEMB     57       POPC     H6S      HAL2     0.900000E-01   1.00800           0
      8433 MEMB     57       POPC     C27      CTL2    -0.180000       12.0110           0
      8434 MEMB     57       POPC     H7R      HAL2     0.900000E-01   1.00800           0
      8435 MEMB     57       POPC     H7S      HAL2     0.900000E-01   1.00800           0
      8436 MEMB     57       POPC     C28      CTL2    -0.180000       12.0110           0
      8437 MEMB     57       POPC     H8R      HAL2     0.900000E-01   1.00800           0
      8438 MEMB     57       POPC     H8S      HAL2     0.900000E-01   1.00800           0
      8439 MEMB     57       POPC     C29      CEL1    -0.150000       12.0110           0
      8440 MEMB     57       POPC     H91      HEL1     0.150000       1.00800           0
      8441 MEMB     57       POPC     C210     CEL1    -0.150000       12.0110           0
      8442 MEMB     57       POPC     H101     HEL1     0.150000       1.00800           0
      8443 MEMB     57       POPC     C211     CTL2    -0.180000       12.0110           0
      8444 MEMB     57       POPC     H11R     HAL2     0.900000E-01   1.00800           0
      8445 MEMB     57       POPC     H11S     HAL2     0.900000E-01   1.00800           0
      8446 MEMB     57       POPC     C212     CTL2    -0.180000       12.0110           0
      8447 MEMB     57       POPC     H12R     HAL2     0.900000E-01   1.00800           0
      8448 MEMB     57       POPC     H12S     HAL2     0.900000E-01   1.00800           0
      8449 MEMB     57       POPC     C213     CTL2    -0.180000       12.0110           0
      8450 MEMB     57       POPC     H13R     HAL2     0.900000E-01   1.00800           0
      8451 MEMB     57       POPC     H13S     HAL2     0.900000E-01   1.00800           0
      8452 MEMB     57       POPC     C214     CTL2    -0.180000       12.0110           0
      8453 MEMB     57       POPC     H14R     HAL2     0.900000E-01   1.00800           0
      8454 MEMB     57       POPC     H14S     HAL2     0.900000E-01   1.00800           0
      8455 MEMB     57       POPC     C215     CTL2    -0.180000       12.0110           0
      8456 MEMB     57       POPC     H15R     HAL2     0.900000E-01   1.00800           0
      8457 MEMB     57       POPC     H15S     HAL2     0.900000E-01   1.00800           0
      8458 MEMB     57       POPC     C216     CTL2    -0.180000       12.0110           0
      8459 MEMB     57       POPC     H16R     HAL2     0.900000E-01   1.00800           0
      8460 MEMB     57       POPC     H16S     HAL2     0.900000E-01   1.00800           0
      8461 MEMB     57       POPC     C217     CTL2    -0.180000       12.0110           0
      8462 MEMB     57       POPC     H17R     HAL2     0.900000E-01   1.00800           0
      8463 MEMB     57       POPC     H17S     HAL2     0.900000E-01   1.00800           0
      8464 MEMB     57       POPC     C218     CTL3    -0.270000       12.0110           0
      8465 MEMB     57       POPC     H18R     HAL3     0.900000E-01   1.00800           0
      8466 MEMB     57       POPC     H18S     HAL3     0.900000E-01   1.00800           0
      8467 MEMB     57       POPC     H18T     HAL3     0.900000E-01   1.00800           0
      8468 MEMB     57       POPC     C33      CTL2    -0.180000       12.0110           0
      8469 MEMB     57       POPC     H3X      HAL2     0.900000E-01   1.00800           0
      8470 MEMB     57       POPC     H3Y      HAL2     0.900000E-01   1.00800           0
      8471 MEMB     57       POPC     C34      CTL2    -0.180000       12.0110           0
      8472 MEMB     57       POPC     H4X      HAL2     0.900000E-01   1.00800           0
      8473 MEMB     57       POPC     H4Y      HAL2     0.900000E-01   1.00800           0
      8474 MEMB     57       POPC     C35      CTL2    -0.180000       12.0110           0
      8475 MEMB     57       POPC     H5X      HAL2     0.900000E-01   1.00800           0
      8476 MEMB     57       POPC     H5Y      HAL2     0.900000E-01   1.00800           0
      8477 MEMB     57       POPC     C36      CTL2    -0.180000       12.0110           0
      8478 MEMB     57       POPC     H6X      HAL2     0.900000E-01   1.00800           0
      8479 MEMB     57       POPC     H6Y      HAL2     0.900000E-01   1.00800           0
      8480 MEMB     57       POPC     C37      CTL2    -0.180000       12.0110           0
      8481 MEMB     57       POPC     H7X      HAL2     0.900000E-01   1.00800           0
      8482 MEMB     57       POPC     H7Y      HAL2     0.900000E-01   1.00800           0
      8483 MEMB     57       POPC     C38      CTL2    -0.180000       12.0110           0
      8484 MEMB     57       POPC     H8X      HAL2     0.900000E-01   1.00800           0
      8485 MEMB     57       POPC     H8Y      HAL2     0.900000E-01   1.00800           0
      8486 MEMB     57       POPC     C39      CTL2    -0.180000       12.0110           0
      8487 MEMB     57       POPC     H9X      HAL2     0.900000E-01   1.00800           0
      8488 MEMB     57       POPC     H9Y      HAL2     0.900000E-01   1.00800           0
      8489 MEMB     57       POPC     C310     CTL2    -0.180000       12.0110           0
      8490 MEMB     57       POPC     H10X     HAL2     0.900000E-01   1.00800           0
      8491 MEMB     57       POPC     H10Y     HAL2     0.900000E-01   1.00800           0
      8492 MEMB     57       POPC     C311     CTL2    -0.180000       12.0110           0
      8493 MEMB     57       POPC     H11X     HAL2     0.900000E-01   1.00800           0
      8494 MEMB     57       POPC     H11Y     HAL2     0.900000E-01   1.00800           0
      8495 MEMB     57       POPC     C312     CTL2    -0.180000       12.0110           0
      8496 MEMB     57       POPC     H12X     HAL2     0.900000E-01   1.00800           0
      8497 MEMB     57       POPC     H12Y     HAL2     0.900000E-01   1.00800           0
      8498 MEMB     57       POPC     C313     CTL2    -0.180000       12.0110           0
      8499 MEMB     57       POPC     H13X     HAL2     0.900000E-01   1.00800           0
      8500 MEMB     57       POPC     H13Y     HAL2     0.900000E-01   1.00800           0
      8501 MEMB     57       POPC     C314     CTL2    -0.180000       12.0110           0
      8502 MEMB     57       POPC     H14X     HAL2     0.900000E-01   1.00800           0
      8503 MEMB     57       POPC     H14Y     HAL2     0.900000E-01   1.00800           0
      8504 MEMB     57       POPC     C315     CTL2    -0.180000       12.0110           0
      8505 MEMB     57       POPC     H15X     HAL2     0.900000E-01   1.00800           0
      8506 MEMB     57       POPC     H15Y     HAL2     0.900000E-01   1.00800           0
      8507 MEMB     57       POPC     C316     CTL3    -0.270000       12.0110           0
      8508 MEMB     57       POPC     H16X     HAL3     0.900000E-01   1.00800           0
      8509 MEMB     57       POPC     H16Y     HAL3     0.900000E-01   1.00800           0
      8510 MEMB     57       POPC     H16Z     HAL3     0.900000E-01   1.00800           0
      8511 MEMB     58       POPC     N        NTL     -0.600000       14.0070           0
      8512 MEMB     58       POPC     C12      CTL2    -0.100000       12.0110           0
      8513 MEMB     58       POPC     H12A     HL       0.250000       1.00800           0
      8514 MEMB     58       POPC     H12B     HL       0.250000       1.00800           0
      8515 MEMB     58       POPC     C13      CTL5    -0.350000       12.0110           0
      8516 MEMB     58       POPC     H13A     HL       0.250000       1.00800           0
      8517 MEMB     58       POPC     H13B     HL       0.250000       1.00800           0
      8518 MEMB     58       POPC     H13C     HL       0.250000       1.00800           0
      8519 MEMB     58       POPC     C14      CTL5    -0.350000       12.0110           0
      8520 MEMB     58       POPC     H14A     HL       0.250000       1.00800           0
      8521 MEMB     58       POPC     H14B     HL       0.250000       1.00800           0
      8522 MEMB     58       POPC     H14C     HL       0.250000       1.00800           0
      8523 MEMB     58       POPC     C15      CTL5    -0.350000       12.0110           0
      8524 MEMB     58       POPC     H15A     HL       0.250000       1.00800           0
      8525 MEMB     58       POPC     H15B     HL       0.250000       1.00800           0
      8526 MEMB     58       POPC     H15C     HL       0.250000       1.00800           0
      8527 MEMB     58       POPC     C11      CTL2    -0.800000E-01   12.0110           0
      8528 MEMB     58       POPC     H11A     HAL2     0.900000E-01   1.00800           0
      8529 MEMB     58       POPC     H11B     HAL2     0.900000E-01   1.00800           0
      8530 MEMB     58       POPC     P        PL        1.50000       30.9740           0
      8531 MEMB     58       POPC     O13      O2L     -0.780000       15.9994           0
      8532 MEMB     58       POPC     O14      O2L     -0.780000       15.9994           0
      8533 MEMB     58       POPC     O12      OSLP    -0.570000       15.9994           0
      8534 MEMB     58       POPC     O11      OSLP    -0.570000       15.9994           0
      8535 MEMB     58       POPC     C1       CTL2    -0.800000E-01   12.0110           0
      8536 MEMB     58       POPC     HA       HAL2     0.900000E-01   1.00800           0
      8537 MEMB     58       POPC     HB       HAL2     0.900000E-01   1.00800           0
      8538 MEMB     58       POPC     C2       CTL1     0.170000       12.0110           0
      8539 MEMB     58       POPC     HS       HAL1     0.900000E-01   1.00800           0
      8540 MEMB     58       POPC     O21      OSL     -0.490000       15.9994           0
      8541 MEMB     58       POPC     C21      CL       0.900000       12.0110           0
      8542 MEMB     58       POPC     O22      OBL     -0.630000       15.9994           0
      8543 MEMB     58       POPC     C22      CTL2    -0.220000       12.0110           0
      8544 MEMB     58       POPC     H2R      HAL2     0.900000E-01   1.00800           0
      8545 MEMB     58       POPC     H2S      HAL2     0.900000E-01   1.00800           0
      8546 MEMB     58       POPC     C3       CTL2     0.800000E-01   12.0110           0
      8547 MEMB     58       POPC     HX       HAL2     0.900000E-01   1.00800           0
      8548 MEMB     58       POPC     HY       HAL2     0.900000E-01   1.00800           0
      8549 MEMB     58       POPC     O31      OSL     -0.490000       15.9994           0
      8550 MEMB     58       POPC     C31      CL       0.900000       12.0110           0
      8551 MEMB     58       POPC     O32      OBL     -0.630000       15.9994           0
      8552 MEMB     58       POPC     C32      CTL2    -0.220000       12.0110           0
      8553 MEMB     58       POPC     H2X      HAL2     0.900000E-01   1.00800           0
      8554 MEMB     58       POPC     H2Y      HAL2     0.900000E-01   1.00800           0
      8555 MEMB     58       POPC     C23      CTL2    -0.180000       12.0110           0
      8556 MEMB     58       POPC     H3R      HAL2     0.900000E-01   1.00800           0
      8557 MEMB     58       POPC     H3S      HAL2     0.900000E-01   1.00800           0
      8558 MEMB     58       POPC     C24      CTL2    -0.180000       12.0110           0
      8559 MEMB     58       POPC     H4R      HAL2     0.900000E-01   1.00800           0
      8560 MEMB     58       POPC     H4S      HAL2     0.900000E-01   1.00800           0
      8561 MEMB     58       POPC     C25      CTL2    -0.180000       12.0110           0
      8562 MEMB     58       POPC     H5R      HAL2     0.900000E-01   1.00800           0
      8563 MEMB     58       POPC     H5S      HAL2     0.900000E-01   1.00800           0
      8564 MEMB     58       POPC     C26      CTL2    -0.180000       12.0110           0
      8565 MEMB     58       POPC     H6R      HAL2     0.900000E-01   1.00800           0
      8566 MEMB     58       POPC     H6S      HAL2     0.900000E-01   1.00800           0
      8567 MEMB     58       POPC     C27      CTL2    -0.180000       12.0110           0
      8568 MEMB     58       POPC     H7R      HAL2     0.900000E-01   1.00800           0
      8569 MEMB     58       POPC     H7S      HAL2     0.900000E-01   1.00800           0
      8570 MEMB     58       POPC     C28      CTL2    -0.180000       12.0110           0
      8571 MEMB     58       POPC     H8R      HAL2     0.900000E-01   1.00800           0
      8572 MEMB     58       POPC     H8S      HAL2     0.900000E-01   1.00800           0
      8573 MEMB     58       POPC     C29      CEL1    -0.150000       12.0110           0
      8574 MEMB     58       POPC     H91      HEL1     0.150000       1.00800           0
      8575 MEMB     58       POPC     C210     CEL1    -0.150000       12.0110           0
      8576 MEMB     58       POPC     H101     HEL1     0.150000       1.00800           0
      8577 MEMB     58       POPC     C211     CTL2    -0.180000       12.0110           0
      8578 MEMB     58       POPC     H11R     HAL2     0.900000E-01   1.00800           0
      8579 MEMB     58       POPC     H11S     HAL2     0.900000E-01   1.00800           0
      8580 MEMB     58       POPC     C212     CTL2    -0.180000       12.0110           0
      8581 MEMB     58       POPC     H12R     HAL2     0.900000E-01   1.00800           0
      8582 MEMB     58       POPC     H12S     HAL2     0.900000E-01   1.00800           0
      8583 MEMB     58       POPC     C213     CTL2    -0.180000       12.0110           0
      8584 MEMB     58       POPC     H13R     HAL2     0.900000E-01   1.00800           0
      8585 MEMB     58       POPC     H13S     HAL2     0.900000E-01   1.00800           0
      8586 MEMB     58       POPC     C214     CTL2    -0.180000       12.0110           0
      8587 MEMB     58       POPC     H14R     HAL2     0.900000E-01   1.00800           0
      8588 MEMB     58       POPC     H14S     HAL2     0.900000E-01   1.00800           0
      8589 MEMB     58       POPC     C215     CTL2    -0.180000       12.0110           0
      8590 MEMB     58       POPC     H15R     HAL2     0.900000E-01   1.00800           0
      8591 MEMB     58       POPC     H15S     HAL2     0.900000E-01   1.00800           0
      8592 MEMB     58       POPC     C216     CTL2    -0.180000       12.0110           0
      8593 MEMB     58       POPC     H16R     HAL2     0.900000E-01   1.00800           0
      8594 MEMB     58       POPC     H16S     HAL2     0.900000E-01   1.00800           0
      8595 MEMB     58       POPC     C217     CTL2    -0.180000       12.0110           0
      8596 MEMB     58       POPC     H17R     HAL2     0.900000E-01   1.00800           0
      8597 MEMB     58       POPC     H17S     HAL2     0.900000E-01   1.00800           0
      8598 MEMB     58       POPC     C218     CTL3    -0.270000       12.0110           0
      8599 MEMB     58       POPC     H18R     HAL3     0.900000E-01   1.00800           0
      8600 MEMB     58       POPC     H18S     HAL3     0.900000E-01   1.00800           0
      8601 MEMB     58       POPC     H18T     HAL3     0.900000E-01   1.00800           0
      8602 MEMB     58       POPC     C33      CTL2    -0.180000       12.0110           0
      8603 MEMB     58       POPC     H3X      HAL2     0.900000E-01   1.00800           0
      8604 MEMB     58       POPC     H3Y      HAL2     0.900000E-01   1.00800           0
      8605 MEMB     58       POPC     C34      CTL2    -0.180000       12.0110           0
      8606 MEMB     58       POPC     H4X      HAL2     0.900000E-01   1.00800           0
      8607 MEMB     58       POPC     H4Y      HAL2     0.900000E-01   1.00800           0
      8608 MEMB     58       POPC     C35      CTL2    -0.180000       12.0110           0
      8609 MEMB     58       POPC     H5X      HAL2     0.900000E-01   1.00800           0
      8610 MEMB     58       POPC     H5Y      HAL2     0.900000E-01   1.00800           0
      8611 MEMB     58       POPC     C36      CTL2    -0.180000       12.0110           0
      8612 MEMB     58       POPC     H6X      HAL2     0.900000E-01   1.00800           0
      8613 MEMB     58       POPC     H6Y      HAL2     0.900000E-01   1.00800           0
      8614 MEMB     58       POPC     C37      CTL2    -0.180000       12.0110           0
      8615 MEMB     58       POPC     H7X      HAL2     0.900000E-01   1.00800           0
      8616 MEMB     58       POPC     H7Y      HAL2     0.900000E-01   1.00800           0
      8617 MEMB     58       POPC     C38      CTL2    -0.180000       12.0110           0
      8618 MEMB     58       POPC     H8X      HAL2     0.900000E-01   1.00800           0
      8619 MEMB     58       POPC     H8Y      HAL2     0.900000E-01   1.00800           0
      8620 MEMB     58       POPC     C39      CTL2    -0.180000       12.0110           0
      8621 MEMB     58       POPC     H9X      HAL2     0.900000E-01   1.00800           0
      8622 MEMB     58       POPC     H9Y      HAL2     0.900000E-01   1.00800           0
      8623 MEMB     58       POPC     C310     CTL2    -0.180000       12.0110           0
      8624 MEMB     58       POPC     H10X     HAL2     0.900000E-01   1.00800           0
      8625 MEMB     58       POPC     H10Y     HAL2     0.900000E-01   1.00800           0
      8626 MEMB     58       POPC     C311     CTL2    -0.180000       12.0110           0
      8627 MEMB     58       POPC     H11X     HAL2     0.900000E-01   1.00800           0
      8628 MEMB     58       POPC     H11Y     HAL2     0.900000E-01   1.00800           0
      8629 MEMB     58       POPC     C312     CTL2    -0.180000       12.0110           0
      8630 MEMB     58       POPC     H12X     HAL2     0.900000E-01   1.00800           0
      8631 MEMB     58       POPC     H12Y     HAL2     0.900000E-01   1.00800           0
      8632 MEMB     58       POPC     C313     CTL2    -0.180000       12.0110           0
      8633 MEMB     58       POPC     H13X     HAL2     0.900000E-01   1.00800           0
      8634 MEMB     58       POPC     H13Y     HAL2     0.900000E-01   1.00800           0
      8635 MEMB     58       POPC     C314     CTL2    -0.180000       12.0110           0
      8636 MEMB     58       POPC     H14X     HAL2     0.900000E-01   1.00800           0
      8637 MEMB     58       POPC     H14Y     HAL2     0.900000E-01   1.00800           0
      8638 MEMB     58       POPC     C315     CTL2    -0.180000       12.0110           0
      8639 MEMB     58       POPC     H15X     HAL2     0.900000E-01   1.00800           0
      8640 MEMB     58       POPC     H15Y     HAL2     0.900000E-01   1.00800           0
      8641 MEMB     58       POPC     C316     CTL3    -0.270000       12.0110           0
      8642 MEMB     58       POPC     H16X     HAL3     0.900000E-01   1.00800           0
      8643 MEMB     58       POPC     H16Y     HAL3     0.900000E-01   1.00800           0
      8644 MEMB     58       POPC     H16Z     HAL3     0.900000E-01   1.00800           0
      8645 MEMB     59       POPC     N        NTL     -0.600000       14.0070           0
      8646 MEMB     59       POPC     C12      CTL2    -0.100000       12.0110           0
      8647 MEMB     59       POPC     H12A     HL       0.250000       1.00800           0
      8648 MEMB     59       POPC     H12B     HL       0.250000       1.00800           0
      8649 MEMB     59       POPC     C13      CTL5    -0.350000       12.0110           0
      8650 MEMB     59       POPC     H13A     HL       0.250000       1.00800           0
      8651 MEMB     59       POPC     H13B     HL       0.250000       1.00800           0
      8652 MEMB     59       POPC     H13C     HL       0.250000       1.00800           0
      8653 MEMB     59       POPC     C14      CTL5    -0.350000       12.0110           0
      8654 MEMB     59       POPC     H14A     HL       0.250000       1.00800           0
      8655 MEMB     59       POPC     H14B     HL       0.250000       1.00800           0
      8656 MEMB     59       POPC     H14C     HL       0.250000       1.00800           0
      8657 MEMB     59       POPC     C15      CTL5    -0.350000       12.0110           0
      8658 MEMB     59       POPC     H15A     HL       0.250000       1.00800           0
      8659 MEMB     59       POPC     H15B     HL       0.250000       1.00800           0
      8660 MEMB     59       POPC     H15C     HL       0.250000       1.00800           0
      8661 MEMB     59       POPC     C11      CTL2    -0.800000E-01   12.0110           0
      8662 MEMB     59       POPC     H11A     HAL2     0.900000E-01   1.00800           0
      8663 MEMB     59       POPC     H11B     HAL2     0.900000E-01   1.00800           0
      8664 MEMB     59       POPC     P        PL        1.50000       30.9740           0
      8665 MEMB     59       POPC     O13      O2L     -0.780000       15.9994           0
      8666 MEMB     59       POPC     O14      O2L     -0.780000       15.9994           0
      8667 MEMB     59       POPC     O12      OSLP    -0.570000       15.9994           0
      8668 MEMB     59       POPC     O11      OSLP    -0.570000       15.9994           0
      8669 MEMB     59       POPC     C1       CTL2    -0.800000E-01   12.0110           0
      8670 MEMB     59       POPC     HA       HAL2     0.900000E-01   1.00800           0
      8671 MEMB     59       POPC     HB       HAL2     0.900000E-01   1.00800           0
      8672 MEMB     59       POPC     C2       CTL1     0.170000       12.0110           0
      8673 MEMB     59       POPC     HS       HAL1     0.900000E-01   1.00800           0
      8674 MEMB     59       POPC     O21      OSL     -0.490000       15.9994           0
      8675 MEMB     59       POPC     C21      CL       0.900000       12.0110           0
      8676 MEMB     59       POPC     O22      OBL     -0.630000       15.9994           0
      8677 MEMB     59       POPC     C22      CTL2    -0.220000       12.0110           0
      8678 MEMB     59       POPC     H2R      HAL2     0.900000E-01   1.00800           0
      8679 MEMB     59       POPC     H2S      HAL2     0.900000E-01   1.00800           0
      8680 MEMB     59       POPC     C3       CTL2     0.800000E-01   12.0110           0
      8681 MEMB     59       POPC     HX       HAL2     0.900000E-01   1.00800           0
      8682 MEMB     59       POPC     HY       HAL2     0.900000E-01   1.00800           0
      8683 MEMB     59       POPC     O31      OSL     -0.490000       15.9994           0
      8684 MEMB     59       POPC     C31      CL       0.900000       12.0110           0
      8685 MEMB     59       POPC     O32      OBL     -0.630000       15.9994           0
      8686 MEMB     59       POPC     C32      CTL2    -0.220000       12.0110           0
      8687 MEMB     59       POPC     H2X      HAL2     0.900000E-01   1.00800           0
      8688 MEMB     59       POPC     H2Y      HAL2     0.900000E-01   1.00800           0
      8689 MEMB     59       POPC     C23      CTL2    -0.180000       12.0110           0
      8690 MEMB     59       POPC     H3R      HAL2     0.900000E-01   1.00800           0
      8691 MEMB     59       POPC     H3S      HAL2     0.900000E-01   1.00800           0
      8692 MEMB     59       POPC     C24      CTL2    -0.180000       12.0110           0
      8693 MEMB     59       POPC     H4R      HAL2     0.900000E-01   1.00800           0
      8694 MEMB     59       POPC     H4S      HAL2     0.900000E-01   1.00800           0
      8695 MEMB     59       POPC     C25      CTL2    -0.180000       12.0110           0
      8696 MEMB     59       POPC     H5R      HAL2     0.900000E-01   1.00800           0
      8697 MEMB     59       POPC     H5S      HAL2     0.900000E-01   1.00800           0
      8698 MEMB     59       POPC     C26      CTL2    -0.180000       12.0110           0
      8699 MEMB     59       POPC     H6R      HAL2     0.900000E-01   1.00800           0
      8700 MEMB     59       POPC     H6S      HAL2     0.900000E-01   1.00800           0
      8701 MEMB     59       POPC     C27      CTL2    -0.180000       12.0110           0
      8702 MEMB     59       POPC     H7R      HAL2     0.900000E-01   1.00800           0
      8703 MEMB     59       POPC     H7S      HAL2     0.900000E-01   1.00800           0
      8704 MEMB     59       POPC     C28      CTL2    -0.180000       12.0110           0
      8705 MEMB     59       POPC     H8R      HAL2     0.900000E-01   1.00800           0
      8706 MEMB     59       POPC     H8S      HAL2     0.900000E-01   1.00800           0
      8707 MEMB     59       POPC     C29      CEL1    -0.150000       12.0110           0
      8708 MEMB     59       POPC     H91      HEL1     0.150000       1.00800           0
      8709 MEMB     59       POPC     C210     CEL1    -0.150000       12.0110           0
      8710 MEMB     59       POPC     H101     HEL1     0.150000       1.00800           0
      8711 MEMB     59       POPC     C211     CTL2    -0.180000       12.0110           0
      8712 MEMB     59       POPC     H11R     HAL2     0.900000E-01   1.00800           0
      8713 MEMB     59       POPC     H11S     HAL2     0.900000E-01   1.00800           0
      8714 MEMB     59       POPC     C212     CTL2    -0.180000       12.0110           0
      8715 MEMB     59       POPC     H12R     HAL2     0.900000E-01   1.00800           0
      8716 MEMB     59       POPC     H12S     HAL2     0.900000E-01   1.00800           0
      8717 MEMB     59       POPC     C213     CTL2    -0.180000       12.0110           0
      8718 MEMB     59       POPC     H13R     HAL2     0.900000E-01   1.00800           0
      8719 MEMB     59       POPC     H13S     HAL2     0.900000E-01   1.00800           0
      8720 MEMB     59       POPC     C214     CTL2    -0.180000       12.0110           0
      8721 MEMB     59       POPC     H14R     HAL2     0.900000E-01   1.00800           0
      8722 MEMB     59       POPC     H14S     HAL2     0.900000E-01   1.00800           0
      8723 MEMB     59       POPC     C215     CTL2    -0.180000       12.0110           0
      8724 MEMB     59       POPC     H15R     HAL2     0.900000E-01   1.00800           0
      8725 MEMB     59       POPC     H15S     HAL2     0.900000E-01   1.00800           0
      8726 MEMB     59       POPC     C216     CTL2    -0.180000       12.0110           0
      8727 MEMB     59       POPC     H16R     HAL2     0.900000E-01   1.00800           0
      8728 MEMB     59       POPC     H16S     HAL2     0.900000E-01   1.00800           0
      8729 MEMB     59       POPC     C217     CTL2    -0.180000       12.0110           0
      8730 MEMB     59       POPC     H17R     HAL2     0.900000E-01   1.00800           0
      8731 MEMB     59       POPC     H17S     HAL2     0.900000E-01   1.00800           0
      8732 MEMB     59       POPC     C218     CTL3    -0.270000       12.0110           0
      8733 MEMB     59       POPC     H18R     HAL3     0.900000E-01   1.00800           0
      8734 MEMB     59       POPC     H18S     HAL3     0.900000E-01   1.00800           0
      8735 MEMB     59       POPC     H18T     HAL3     0.900000E-01   1.00800           0
      8736 MEMB     59       POPC     C33      CTL2    -0.180000       12.0110           0
      8737 MEMB     59       POPC     H3X      HAL2     0.900000E-01   1.00800           0
      8738 MEMB     59       POPC     H3Y      HAL2     0.900000E-01   1.00800           0
      8739 MEMB     59       POPC     C34      CTL2    -0.180000       12.0110           0
      8740 MEMB     59       POPC     H4X      HAL2     0.900000E-01   1.00800           0
      8741 MEMB     59       POPC     H4Y      HAL2     0.900000E-01   1.00800           0
      8742 MEMB     59       POPC     C35      CTL2    -0.180000       12.0110           0
      8743 MEMB     59       POPC     H5X      HAL2     0.900000E-01   1.00800           0
      8744 MEMB     59       POPC     H5Y      HAL2     0.900000E-01   1.00800           0
      8745 MEMB     59       POPC     C36      CTL2    -0.180000       12.0110           0
      8746 MEMB     59       POPC     H6X      HAL2     0.900000E-01   1.00800           0
      8747 MEMB     59       POPC     H6Y      HAL2     0.900000E-01   1.00800           0
      8748 MEMB     59       POPC     C37      CTL2    -0.180000       12.0110           0
      8749 MEMB     59       POPC     H7X      HAL2     0.900000E-01   1.00800           0
      8750 MEMB     59       POPC     H7Y      HAL2     0.900000E-01   1.00800           0
      8751 MEMB     59       POPC     C38      CTL2    -0.180000       12.0110           0
      8752 MEMB     59       POPC     H8X      HAL2     0.900000E-01   1.00800           0
      8753 MEMB     59       POPC     H8Y      HAL2     0.900000E-01   1.00800           0
      8754 MEMB     59       POPC     C39      CTL2    -0.180000       12.0110           0
      8755 MEMB     59       POPC     H9X      HAL2     0.900000E-01   1.00800           0
      8756 MEMB     59       POPC     H9Y      HAL2     0.900000E-01   1.00800           0
      8757 MEMB     59       POPC     C310     CTL2    -0.180000       12.0110           0
      8758 MEMB     59       POPC     H10X     HAL2     0.900000E-01   1.00800           0
      8759 MEMB     59       POPC     H10Y     HAL2     0.900000E-01   1.00800           0
      8760 MEMB     59       POPC     C311     CTL2    -0.180000       12.0110           0
      8761 MEMB     59       POPC     H11X     HAL2     0.900000E-01   1.00800           0
      8762 MEMB     59       POPC     H11Y     HAL2     0.900000E-01   1.00800           0
      8763 MEMB     59       POPC     C312     CTL2    -0.180000       12.0110           0
      8764 MEMB     59       POPC     H12X     HAL2     0.900000E-01   1.00800           0
      8765 MEMB     59       POPC     H12Y     HAL2     0.900000E-01   1.00800           0
      8766 MEMB     59       POPC     C313     CTL2    -0.180000       12.0110           0
      8767 MEMB     59       POPC     H13X     HAL2     0.900000E-01   1.00800           0
      8768 MEMB     59       POPC     H13Y     HAL2     0.900000E-01   1.00800           0
      8769 MEMB     59       POPC     C314     CTL2    -0.180000       12.0110           0
      8770 MEMB     59       POPC     H14X     HAL2     0.900000E-01   1.00800           0
      8771 MEMB     59       POPC     H14Y     HAL2     0.900000E-01   1.00800           0
      8772 MEMB     59       POPC     C315     CTL2    -0.180000       12.0110           0
      8773 MEMB     59       POPC     H15X     HAL2     0.900000E-01   1.00800           0
      8774 MEMB     59       POPC     H15Y     HAL2     0.900000E-01   1.00800           0
      8775 MEMB     59       POPC     C316     CTL3    -0.270000       12.0110           0
      8776 MEMB     59       POPC     H16X     HAL3     0.900000E-01   1.00800           0
      8777 MEMB     59       POPC     H16Y     HAL3     0.900000E-01   1.00800           0
      8778 MEMB     59       POPC     H16Z     HAL3     0.900000E-01   1.00800           0
      8779 MEMB     60       POPC     N        NTL     -0.600000       14.0070           0
      8780 MEMB     60       POPC     C12      CTL2    -0.100000       12.0110           0
      8781 MEMB     60       POPC     H12A     HL       0.250000       1.00800           0
      8782 MEMB     60       POPC     H12B     HL       0.250000       1.00800           0
      8783 MEMB     60       POPC     C13      CTL5    -0.350000       12.0110           0
      8784 MEMB     60       POPC     H13A     HL       0.250000       1.00800           0
      8785 MEMB     60       POPC     H13B     HL       0.250000       1.00800           0
      8786 MEMB     60       POPC     H13C     HL       0.250000       1.00800           0
      8787 MEMB     60       POPC     C14      CTL5    -0.350000       12.0110           0
      8788 MEMB     60       POPC     H14A     HL       0.250000       1.00800           0
      8789 MEMB     60       POPC     H14B     HL       0.250000       1.00800           0
      8790 MEMB     60       POPC     H14C     HL       0.250000       1.00800           0
      8791 MEMB     60       POPC     C15      CTL5    -0.350000       12.0110           0
      8792 MEMB     60       POPC     H15A     HL       0.250000       1.00800           0
      8793 MEMB     60       POPC     H15B     HL       0.250000       1.00800           0
      8794 MEMB     60       POPC     H15C     HL       0.250000       1.00800           0
      8795 MEMB     60       POPC     C11      CTL2    -0.800000E-01   12.0110           0
      8796 MEMB     60       POPC     H11A     HAL2     0.900000E-01   1.00800           0
      8797 MEMB     60       POPC     H11B     HAL2     0.900000E-01   1.00800           0
      8798 MEMB     60       POPC     P        PL        1.50000       30.9740           0
      8799 MEMB     60       POPC     O13      O2L     -0.780000       15.9994           0
      8800 MEMB     60       POPC     O14      O2L     -0.780000       15.9994           0
      8801 MEMB     60       POPC     O12      OSLP    -0.570000       15.9994           0
      8802 MEMB     60       POPC     O11      OSLP    -0.570000       15.9994           0
      8803 MEMB     60       POPC     C1       CTL2    -0.800000E-01   12.0110           0
      8804 MEMB     60       POPC     HA       HAL2     0.900000E-01   1.00800           0
      8805 MEMB     60       POPC     HB       HAL2     0.900000E-01   1.00800           0
      8806 MEMB     60       POPC     C2       CTL1     0.170000       12.0110           0
      8807 MEMB     60       POPC     HS       HAL1     0.900000E-01   1.00800           0
      8808 MEMB     60       POPC     O21      OSL     -0.490000       15.9994           0
      8809 MEMB     60       POPC     C21      CL       0.900000       12.0110           0
      8810 MEMB     60       POPC     O22      OBL     -0.630000       15.9994           0
      8811 MEMB     60       POPC     C22      CTL2    -0.220000       12.0110           0
      8812 MEMB     60       POPC     H2R      HAL2     0.900000E-01   1.00800           0
      8813 MEMB     60       POPC     H2S      HAL2     0.900000E-01   1.00800           0
      8814 MEMB     60       POPC     C3       CTL2     0.800000E-01   12.0110           0
      8815 MEMB     60       POPC     HX       HAL2     0.900000E-01   1.00800           0
      8816 MEMB     60       POPC     HY       HAL2     0.900000E-01   1.00800           0
      8817 MEMB     60       POPC     O31      OSL     -0.490000       15.9994           0
      8818 MEMB     60       POPC     C31      CL       0.900000       12.0110           0
      8819 MEMB     60       POPC     O32      OBL     -0.630000       15.9994           0
      8820 MEMB     60       POPC     C32      CTL2    -0.220000       12.0110           0
      8821 MEMB     60       POPC     H2X      HAL2     0.900000E-01   1.00800           0
      8822 MEMB     60       POPC     H2Y      HAL2     0.900000E-01   1.00800           0
      8823 MEMB     60       POPC     C23      CTL2    -0.180000       12.0110           0
      8824 MEMB     60       POPC     H3R      HAL2     0.900000E-01   1.00800           0
      8825 MEMB     60       POPC     H3S      HAL2     0.900000E-01   1.00800           0
      8826 MEMB     60       POPC     C24      CTL2    -0.180000       12.0110           0
      8827 MEMB     60       POPC     H4R      HAL2     0.900000E-01   1.00800           0
      8828 MEMB     60       POPC     H4S      HAL2     0.900000E-01   1.00800           0
      8829 MEMB     60       POPC     C25      CTL2    -0.180000       12.0110           0
      8830 MEMB     60       POPC     H5R      HAL2     0.900000E-01   1.00800           0
      8831 MEMB     60       POPC     H5S      HAL2     0.900000E-01   1.00800           0
      8832 MEMB     60       POPC     C26      CTL2    -0.180000       12.0110           0
      8833 MEMB     60       POPC     H6R      HAL2     0.900000E-01   1.00800           0
      8834 MEMB     60       POPC     H6S      HAL2     0.900000E-01   1.00800           0
      8835 MEMB     60       POPC     C27      CTL2    -0.180000       12.0110           0
      8836 MEMB     60       POPC     H7R      HAL2     0.900000E-01   1.00800           0
      8837 MEMB     60       POPC     H7S      HAL2     0.900000E-01   1.00800           0
      8838 MEMB     60       POPC     C28      CTL2    -0.180000       12.0110           0
      8839 MEMB     60       POPC     H8R      HAL2     0.900000E-01   1.00800           0
      8840 MEMB     60       POPC     H8S      HAL2     0.900000E-01   1.00800           0
      8841 MEMB     60       POPC     C29      CEL1    -0.150000       12.0110           0
      8842 MEMB     60       POPC     H91      HEL1     0.150000       1.00800           0
      8843 MEMB     60       POPC     C210     CEL1    -0.150000       12.0110           0
      8844 MEMB     60       POPC     H101     HEL1     0.150000       1.00800           0
      8845 MEMB     60       POPC     C211     CTL2    -0.180000       12.0110           0
      8846 MEMB     60       POPC     H11R     HAL2     0.900000E-01   1.00800           0
      8847 MEMB     60       POPC     H11S     HAL2     0.900000E-01   1.00800           0
      8848 MEMB     60       POPC     C212     CTL2    -0.180000       12.0110           0
      8849 MEMB     60       POPC     H12R     HAL2     0.900000E-01   1.00800           0
      8850 MEMB     60       POPC     H12S     HAL2     0.900000E-01   1.00800           0
      8851 MEMB     60       POPC     C213     CTL2    -0.180000       12.0110           0
      8852 MEMB     60       POPC     H13R     HAL2     0.900000E-01   1.00800           0
      8853 MEMB     60       POPC     H13S     HAL2     0.900000E-01   1.00800           0
      8854 MEMB     60       POPC     C214     CTL2    -0.180000       12.0110           0
      8855 MEMB     60       POPC     H14R     HAL2     0.900000E-01   1.00800           0
      8856 MEMB     60       POPC     H14S     HAL2     0.900000E-01   1.00800           0
      8857 MEMB     60       POPC     C215     CTL2    -0.180000       12.0110           0
      8858 MEMB     60       POPC     H15R     HAL2     0.900000E-01   1.00800           0
      8859 MEMB     60       POPC     H15S     HAL2     0.900000E-01   1.00800           0
      8860 MEMB     60       POPC     C216     CTL2    -0.180000       12.0110           0
      8861 MEMB     60       POPC     H16R     HAL2     0.900000E-01   1.00800           0
      8862 MEMB     60       POPC     H16S     HAL2     0.900000E-01   1.00800           0
      8863 MEMB     60       POPC     C217     CTL2    -0.180000       12.0110           0
      8864 MEMB     60       POPC     H17R     HAL2     0.900000E-01   1.00800           0
      8865 MEMB     60       POPC     H17S     HAL2     0.900000E-01   1.00800           0
      8866 MEMB     60       POPC     C218     CTL3    -0.270000       12.0110           0
      8867 MEMB     60       POPC     H18R     HAL3     0.900000E-01   1.00800           0
      8868 MEMB     60       POPC     H18S     HAL3     0.900000E-01   1.00800           0
      8869 MEMB     60       POPC     H18T     HAL3     0.900000E-01   1.00800           0
      8870 MEMB     60       POPC     C33      CTL2    -0.180000       12.0110           0
      8871 MEMB     60       POPC     H3X      HAL2     0.900000E-01   1.00800           0
      8872 MEMB     60       POPC     H3Y      HAL2     0.900000E-01   1.00800           0
      8873 MEMB     60       POPC     C34      CTL2    -0.180000       12.0110           0
      8874 MEMB     60       POPC     H4X      HAL2     0.900000E-01   1.00800           0
      8875 MEMB     60       POPC     H4Y      HAL2     0.900000E-01   1.00800           0
      8876 MEMB     60       POPC     C35      CTL2    -0.180000       12.0110           0
      8877 MEMB     60       POPC     H5X      HAL2     0.900000E-01   1.00800           0
      8878 MEMB     60       POPC     H5Y      HAL2     0.900000E-01   1.00800           0
      8879 MEMB     60       POPC     C36      CTL2    -0.180000       12.0110           0
      8880 MEMB     60       POPC     H6X      HAL2     0.900000E-01   1.00800           0
      8881 MEMB     60       POPC     H6Y      HAL2     0.900000E-01   1.00800           0
      8882 MEMB     60       POPC     C37      CTL2    -0.180000       12.0110           0
      8883 MEMB     60       POPC     H7X      HAL2     0.900000E-01   1.00800           0
      8884 MEMB     60       POPC     H7Y      HAL2     0.900000E-01   1.00800           0
      8885 MEMB     60       POPC     C38      CTL2    -0.180000       12.0110           0
      8886 MEMB     60       POPC     H8X      HAL2     0.900000E-01   1.00800           0
      8887 MEMB     60       POPC     H8Y      HAL2     0.900000E-01   1.00800           0
      8888 MEMB     60       POPC     C39      CTL2    -0.180000       12.0110           0
      8889 MEMB     60       POPC     H9X      HAL2     0.900000E-01   1.00800           0
      8890 MEMB     60       POPC     H9Y      HAL2     0.900000E-01   1.00800           0
      8891 MEMB     60       POPC     C310     CTL2    -0.180000       12.0110           0
      8892 MEMB     60       POPC     H10X     HAL2     0.900000E-01   1.00800           0
      8893 MEMB     60       POPC     H10Y     HAL2     0.900000E-01   1.00800           0
      8894 MEMB     60       POPC     C311     CTL2    -0.180000       12.0110           0
      8895 MEMB     60       POPC     H11X     HAL2     0.900000E-01   1.00800           0
      8896 MEMB     60       POPC     H11Y     HAL2     0.900000E-01   1.00800           0
      8897 MEMB     60       POPC     C312     CTL2    -0.180000       12.0110           0
      8898 MEMB     60       POPC     H12X     HAL2     0.900000E-01   1.00800           0
      8899 MEMB     60       POPC     H12Y     HAL2     0.900000E-01   1.00800           0
      8900 MEMB     60       POPC     C313     CTL2    -0.180000       12.0110           0
      8901 MEMB     60       POPC     H13X     HAL2     0.900000E-01   1.00800           0
      8902 MEMB     60       POPC     H13Y     HAL2     0.900000E-01   1.00800           0
      8903 MEMB     60       POPC     C314     CTL2    -0.180000       12.0110           0
      8904 MEMB     60       POPC     H14X     HAL2     0.900000E-01   1.00800           0
      8905 MEMB     60       POPC     H14Y     HAL2     0.900000E-01   1.00800           0
      8906 MEMB     60       POPC     C315     CTL2    -0.180000       12.0110           0
      8907 MEMB     60       POPC     H15X     HAL2     0.900000E-01   1.00800           0
      8908 MEMB     60       POPC     H15Y     HAL2     0.900000E-01   1.00800           0
      8909 MEMB     60       POPC     C316     CTL3    -0.270000       12.0110           0
      8910 MEMB     60       POPC     H16X     HAL3     0.900000E-01   1.00800           0
      8911 MEMB     60       POPC     H16Y     HAL3     0.900000E-01   1.00800           0
      8912 MEMB     60       POPC     H16Z     HAL3     0.900000E-01   1.00800           0
      8913 MEMB     61       POPC     N        NTL     -0.600000       14.0070           0
      8914 MEMB     61       POPC     C12      CTL2    -0.100000       12.0110           0
      8915 MEMB     61       POPC     H12A     HL       0.250000       1.00800           0
      8916 MEMB     61       POPC     H12B     HL       0.250000       1.00800           0
      8917 MEMB     61       POPC     C13      CTL5    -0.350000       12.0110           0
      8918 MEMB     61       POPC     H13A     HL       0.250000       1.00800           0
      8919 MEMB     61       POPC     H13B     HL       0.250000       1.00800           0
      8920 MEMB     61       POPC     H13C     HL       0.250000       1.00800           0
      8921 MEMB     61       POPC     C14      CTL5    -0.350000       12.0110           0
      8922 MEMB     61       POPC     H14A     HL       0.250000       1.00800           0
      8923 MEMB     61       POPC     H14B     HL       0.250000       1.00800           0
      8924 MEMB     61       POPC     H14C     HL       0.250000       1.00800           0
      8925 MEMB     61       POPC     C15      CTL5    -0.350000       12.0110           0
      8926 MEMB     61       POPC     H15A     HL       0.250000       1.00800           0
      8927 MEMB     61       POPC     H15B     HL       0.250000       1.00800           0
      8928 MEMB     61       POPC     H15C     HL       0.250000       1.00800           0
      8929 MEMB     61       POPC     C11      CTL2    -0.800000E-01   12.0110           0
      8930 MEMB     61       POPC     H11A     HAL2     0.900000E-01   1.00800           0
      8931 MEMB     61       POPC     H11B     HAL2     0.900000E-01   1.00800           0
      8932 MEMB     61       POPC     P        PL        1.50000       30.9740           0
      8933 MEMB     61       POPC     O13      O2L     -0.780000       15.9994           0
      8934 MEMB     61       POPC     O14      O2L     -0.780000       15.9994           0
      8935 MEMB     61       POPC     O12      OSLP    -0.570000       15.9994           0
      8936 MEMB     61       POPC     O11      OSLP    -0.570000       15.9994           0
      8937 MEMB     61       POPC     C1       CTL2    -0.800000E-01   12.0110           0
      8938 MEMB     61       POPC     HA       HAL2     0.900000E-01   1.00800           0
      8939 MEMB     61       POPC     HB       HAL2     0.900000E-01   1.00800           0
      8940 MEMB     61       POPC     C2       CTL1     0.170000       12.0110           0
      8941 MEMB     61       POPC     HS       HAL1     0.900000E-01   1.00800           0
      8942 MEMB     61       POPC     O21      OSL     -0.490000       15.9994           0
      8943 MEMB     61       POPC     C21      CL       0.900000       12.0110           0
      8944 MEMB     61       POPC     O22      OBL     -0.630000       15.9994           0
      8945 MEMB     61       POPC     C22      CTL2    -0.220000       12.0110           0
      8946 MEMB     61       POPC     H2R      HAL2     0.900000E-01   1.00800           0
      8947 MEMB     61       POPC     H2S      HAL2     0.900000E-01   1.00800           0
      8948 MEMB     61       POPC     C3       CTL2     0.800000E-01   12.0110           0
      8949 MEMB     61       POPC     HX       HAL2     0.900000E-01   1.00800           0
      8950 MEMB     61       POPC     HY       HAL2     0.900000E-01   1.00800           0
      8951 MEMB     61       POPC     O31      OSL     -0.490000       15.9994           0
      8952 MEMB     61       POPC     C31      CL       0.900000       12.0110           0
      8953 MEMB     61       POPC     O32      OBL     -0.630000       15.9994           0
      8954 MEMB     61       POPC     C32      CTL2    -0.220000       12.0110           0
      8955 MEMB     61       POPC     H2X      HAL2     0.900000E-01   1.00800           0
      8956 MEMB     61       POPC     H2Y      HAL2     0.900000E-01   1.00800           0
      8957 MEMB     61       POPC     C23      CTL2    -0.180000       12.0110           0
      8958 MEMB     61       POPC     H3R      HAL2     0.900000E-01   1.00800           0
      8959 MEMB     61       POPC     H3S      HAL2     0.900000E-01   1.00800           0
      8960 MEMB     61       POPC     C24      CTL2    -0.180000       12.0110           0
      8961 MEMB     61       POPC     H4R      HAL2     0.900000E-01   1.00800           0
      8962 MEMB     61       POPC     H4S      HAL2     0.900000E-01   1.00800           0
      8963 MEMB     61       POPC     C25      CTL2    -0.180000       12.0110           0
      8964 MEMB     61       POPC     H5R      HAL2     0.900000E-01   1.00800           0
      8965 MEMB     61       POPC     H5S      HAL2     0.900000E-01   1.00800           0
      8966 MEMB     61       POPC     C26      CTL2    -0.180000       12.0110           0
      8967 MEMB     61       POPC     H6R      HAL2     0.900000E-01   1.00800           0
      8968 MEMB     61       POPC     H6S      HAL2     0.900000E-01   1.00800           0
      8969 MEMB     61       POPC     C27      CTL2    -0.180000       12.0110           0
      8970 MEMB     61       POPC     H7R      HAL2     0.900000E-01   1.00800           0
      8971 MEMB     61       POPC     H7S      HAL2     0.900000E-01   1.00800           0
      8972 MEMB     61       POPC     C28      CTL2    -0.180000       12.0110           0
      8973 MEMB     61       POPC     H8R      HAL2     0.900000E-01   1.00800           0
      8974 MEMB     61       POPC     H8S      HAL2     0.900000E-01   1.00800           0
      8975 MEMB     61       POPC     C29      CEL1    -0.150000       12.0110           0
      8976 MEMB     61       POPC     H91      HEL1     0.150000       1.00800           0
      8977 MEMB     61       POPC     C210     CEL1    -0.150000       12.0110           0
      8978 MEMB     61       POPC     H101     HEL1     0.150000       1.00800           0
      8979 MEMB     61       POPC     C211     CTL2    -0.180000       12.0110           0
      8980 MEMB     61       POPC     H11R     HAL2     0.900000E-01   1.00800           0
      8981 MEMB     61       POPC     H11S     HAL2     0.900000E-01   1.00800           0
      8982 MEMB     61       POPC     C212     CTL2    -0.180000       12.0110           0
      8983 MEMB     61       POPC     H12R     HAL2     0.900000E-01   1.00800           0
      8984 MEMB     61       POPC     H12S     HAL2     0.900000E-01   1.00800           0
      8985 MEMB     61       POPC     C213     CTL2    -0.180000       12.0110           0
      8986 MEMB     61       POPC     H13R     HAL2     0.900000E-01   1.00800           0
      8987 MEMB     61       POPC     H13S     HAL2     0.900000E-01   1.00800           0
      8988 MEMB     61       POPC     C214     CTL2    -0.180000       12.0110           0
      8989 MEMB     61       POPC     H14R     HAL2     0.900000E-01   1.00800           0
      8990 MEMB     61       POPC     H14S     HAL2     0.900000E-01   1.00800           0
      8991 MEMB     61       POPC     C215     CTL2    -0.180000       12.0110           0
      8992 MEMB     61       POPC     H15R     HAL2     0.900000E-01   1.00800           0
      8993 MEMB     61       POPC     H15S     HAL2     0.900000E-01   1.00800           0
      8994 MEMB     61       POPC     C216     CTL2    -0.180000       12.0110           0
      8995 MEMB     61       POPC     H16R     HAL2     0.900000E-01   1.00800           0
      8996 MEMB     61       POPC     H16S     HAL2     0.900000E-01   1.00800           0
      8997 MEMB     61       POPC     C217     CTL2    -0.180000       12.0110           0
      8998 MEMB     61       POPC     H17R     HAL2     0.900000E-01   1.00800           0
      8999 MEMB     61       POPC     H17S     HAL2     0.900000E-01   1.00800           0
      9000 MEMB     61       POPC     C218     CTL3    -0.270000       12.0110           0
      9001 MEMB     61       POPC     H18R     HAL3     0.900000E-01   1.00800           0
      9002 MEMB     61       POPC     H18S     HAL3     0.900000E-01   1.00800           0
      9003 MEMB     61       POPC     H18T     HAL3     0.900000E-01   1.00800           0
      9004 MEMB     61       POPC     C33      CTL2    -0.180000       12.0110           0
      9005 MEMB     61       POPC     H3X      HAL2     0.900000E-01   1.00800           0
      9006 MEMB     61       POPC     H3Y      HAL2     0.900000E-01   1.00800           0
      9007 MEMB     61       POPC     C34      CTL2    -0.180000       12.0110           0
      9008 MEMB     61       POPC     H4X      HAL2     0.900000E-01   1.00800           0
      9009 MEMB     61       POPC     H4Y      HAL2     0.900000E-01   1.00800           0
      9010 MEMB     61       POPC     C35      CTL2    -0.180000       12.0110           0
      9011 MEMB     61       POPC     H5X      HAL2     0.900000E-01   1.00800           0
      9012 MEMB     61       POPC     H5Y      HAL2     0.900000E-01   1.00800           0
      9013 MEMB     61       POPC     C36      CTL2    -0.180000       12.0110           0
      9014 MEMB     61       POPC     H6X      HAL2     0.900000E-01   1.00800           0
      9015 MEMB     61       POPC     H6Y      HAL2     0.900000E-01   1.00800           0
      9016 MEMB     61       POPC     C37      CTL2    -0.180000       12.0110           0
      9017 MEMB     61       POPC     H7X      HAL2     0.900000E-01   1.00800           0
      9018 MEMB     61       POPC     H7Y      HAL2     0.900000E-01   1.00800           0
      9019 MEMB     61       POPC     C38      CTL2    -0.180000       12.0110           0
      9020 MEMB     61       POPC     H8X      HAL2     0.900000E-01   1.00800           0
      9021 MEMB     61       POPC     H8Y      HAL2     0.900000E-01   1.00800           0
      9022 MEMB     61       POPC     C39      CTL2    -0.180000       12.0110           0
      9023 MEMB     61       POPC     H9X      HAL2     0.900000E-01   1.00800           0
      9024 MEMB     61       POPC     H9Y      HAL2     0.900000E-01   1.00800           0
      9025 MEMB     61       POPC     C310     CTL2    -0.180000       12.0110           0
      9026 MEMB     61       POPC     H10X     HAL2     0.900000E-01   1.00800           0
      9027 MEMB     61       POPC     H10Y     HAL2     0.900000E-01   1.00800           0
      9028 MEMB     61       POPC     C311     CTL2    -0.180000       12.0110           0
      9029 MEMB     61       POPC     H11X     HAL2     0.900000E-01   1.00800           0
      9030 MEMB     61       POPC     H11Y     HAL2     0.900000E-01   1.00800           0
      9031 MEMB     61       POPC     C312     CTL2    -0.180000       12.0110           0
      9032 MEMB     61       POPC     H12X     HAL2     0.900000E-01   1.00800           0
      9033 MEMB     61       POPC     H12Y     HAL2     0.900000E-01   1.00800           0
      9034 MEMB     61       POPC     C313     CTL2    -0.180000       12.0110           0
      9035 MEMB     61       POPC     H13X     HAL2     0.900000E-01   1.00800           0
      9036 MEMB     61       POPC     H13Y     HAL2     0.900000E-01   1.00800           0
      9037 MEMB     61       POPC     C314     CTL2    -0.180000       12.0110           0
      9038 MEMB     61       POPC     H14X     HAL2     0.900000E-01   1.00800           0
      9039 MEMB     61       POPC     H14Y     HAL2     0.900000E-01   1.00800           0
      9040 MEMB     61       POPC     C315     CTL2    -0.180000       12.0110           0
      9041 MEMB     61       POPC     H15X     HAL2     0.900000E-01   1.00800           0
      9042 MEMB     61       POPC     H15Y     HAL2     0.900000E-01   1.00800           0
      9043 MEMB     61       POPC     C316     CTL3    -0.270000       12.0110           0
      9044 MEMB     61       POPC     H16X     HAL3     0.900000E-01   1.00800           0
      9045 MEMB     61       POPC     H16Y     HAL3     0.900000E-01   1.00800           0
      9046 MEMB     61       POPC     H16Z     HAL3     0.900000E-01   1.00800           0
      9047 MEMB     62       POPC     N        NTL     -0.600000       14.0070           0
      9048 MEMB     62       POPC     C12      CTL2    -0.100000       12.0110           0
      9049 MEMB     62       POPC     H12A     HL       0.250000       1.00800           0
      9050 MEMB     62       POPC     H12B     HL       0.250000       1.00800           0
      9051 MEMB     62       POPC     C13      CTL5    -0.350000       12.0110           0
      9052 MEMB     62       POPC     H13A     HL       0.250000       1.00800           0
      9053 MEMB     62       POPC     H13B     HL       0.250000       1.00800           0
      9054 MEMB     62       POPC     H13C     HL       0.250000       1.00800           0
      9055 MEMB     62       POPC     C14      CTL5    -0.350000       12.0110           0
      9056 MEMB     62       POPC     H14A     HL       0.250000       1.00800           0
      9057 MEMB     62       POPC     H14B     HL       0.250000       1.00800           0
      9058 MEMB     62       POPC     H14C     HL       0.250000       1.00800           0
      9059 MEMB     62       POPC     C15      CTL5    -0.350000       12.0110           0
      9060 MEMB     62       POPC     H15A     HL       0.250000       1.00800           0
      9061 MEMB     62       POPC     H15B     HL       0.250000       1.00800           0
      9062 MEMB     62       POPC     H15C     HL       0.250000       1.00800           0
      9063 MEMB     62       POPC     C11      CTL2    -0.800000E-01   12.0110           0
      9064 MEMB     62       POPC     H11A     HAL2     0.900000E-01   1.00800           0
      9065 MEMB     62       POPC     H11B     HAL2     0.900000E-01   1.00800           0
      9066 MEMB     62       POPC     P        PL        1.50000       30.9740           0
      9067 MEMB     62       POPC     O13      O2L     -0.780000       15.9994           0
      9068 MEMB     62       POPC     O14      O2L     -0.780000       15.9994           0
      9069 MEMB     62       POPC     O12      OSLP    -0.570000       15.9994           0
      9070 MEMB     62       POPC     O11      OSLP    -0.570000       15.9994           0
      9071 MEMB     62       POPC     C1       CTL2    -0.800000E-01   12.0110           0
      9072 MEMB     62       POPC     HA       HAL2     0.900000E-01   1.00800           0
      9073 MEMB     62       POPC     HB       HAL2     0.900000E-01   1.00800           0
      9074 MEMB     62       POPC     C2       CTL1     0.170000       12.0110           0
      9075 MEMB     62       POPC     HS       HAL1     0.900000E-01   1.00800           0
      9076 MEMB     62       POPC     O21      OSL     -0.490000       15.9994           0
      9077 MEMB     62       POPC     C21      CL       0.900000       12.0110           0
      9078 MEMB     62       POPC     O22      OBL     -0.630000       15.9994           0
      9079 MEMB     62       POPC     C22      CTL2    -0.220000       12.0110           0
      9080 MEMB     62       POPC     H2R      HAL2     0.900000E-01   1.00800           0
      9081 MEMB     62       POPC     H2S      HAL2     0.900000E-01   1.00800           0
      9082 MEMB     62       POPC     C3       CTL2     0.800000E-01   12.0110           0
      9083 MEMB     62       POPC     HX       HAL2     0.900000E-01   1.00800           0
      9084 MEMB     62       POPC     HY       HAL2     0.900000E-01   1.00800           0
      9085 MEMB     62       POPC     O31      OSL     -0.490000       15.9994           0
      9086 MEMB     62       POPC     C31      CL       0.900000       12.0110           0
      9087 MEMB     62       POPC     O32      OBL     -0.630000       15.9994           0
      9088 MEMB     62       POPC     C32      CTL2    -0.220000       12.0110           0
      9089 MEMB     62       POPC     H2X      HAL2     0.900000E-01   1.00800           0
      9090 MEMB     62       POPC     H2Y      HAL2     0.900000E-01   1.00800           0
      9091 MEMB     62       POPC     C23      CTL2    -0.180000       12.0110           0
      9092 MEMB     62       POPC     H3R      HAL2     0.900000E-01   1.00800           0
      9093 MEMB     62       POPC     H3S      HAL2     0.900000E-01   1.00800           0
      9094 MEMB     62       POPC     C24      CTL2    -0.180000       12.0110           0
      9095 MEMB     62       POPC     H4R      HAL2     0.900000E-01   1.00800           0
      9096 MEMB     62       POPC     H4S      HAL2     0.900000E-01   1.00800           0
      9097 MEMB     62       POPC     C25      CTL2    -0.180000       12.0110           0
      9098 MEMB     62       POPC     H5R      HAL2     0.900000E-01   1.00800           0
      9099 MEMB     62       POPC     H5S      HAL2     0.900000E-01   1.00800           0
      9100 MEMB     62       POPC     C26      CTL2    -0.180000       12.0110           0
      9101 MEMB     62       POPC     H6R      HAL2     0.900000E-01   1.00800           0
      9102 MEMB     62       POPC     H6S      HAL2     0.900000E-01   1.00800           0
      9103 MEMB     62       POPC     C27      CTL2    -0.180000       12.0110           0
      9104 MEMB     62       POPC     H7R      HAL2     0.900000E-01   1.00800           0
      9105 MEMB     62       POPC     H7S      HAL2     0.900000E-01   1.00800           0
      9106 MEMB     62       POPC     C28      CTL2    -0.180000       12.0110           0
      9107 MEMB     62       POPC     H8R      HAL2     0.900000E-01   1.00800           0
      9108 MEMB     62       POPC     H8S      HAL2     0.900000E-01   1.00800           0
      9109 MEMB     62       POPC     C29      CEL1    -0.150000       12.0110           0
      9110 MEMB     62       POPC     H91      HEL1     0.150000       1.00800           0
      9111 MEMB     62       POPC     C210     CEL1    -0.150000       12.0110           0
      9112 MEMB     62       POPC     H101     HEL1     0.150000       1.00800           0
      9113 MEMB     62       POPC     C211     CTL2    -0.180000       12.0110           0
      9114 MEMB     62       POPC     H11R     HAL2     0.900000E-01   1.00800           0
      9115 MEMB     62       POPC     H11S     HAL2     0.900000E-01   1.00800           0
      9116 MEMB     62       POPC     C212     CTL2    -0.180000       12.0110           0
      9117 MEMB     62       POPC     H12R     HAL2     0.900000E-01   1.00800           0
      9118 MEMB     62       POPC     H12S     HAL2     0.900000E-01   1.00800           0
      9119 MEMB     62       POPC     C213     CTL2    -0.180000       12.0110           0
      9120 MEMB     62       POPC     H13R     HAL2     0.900000E-01   1.00800           0
      9121 MEMB     62       POPC     H13S     HAL2     0.900000E-01   1.00800           0
      9122 MEMB     62       POPC     C214     CTL2    -0.180000       12.0110           0
      9123 MEMB     62       POPC     H14R     HAL2     0.900000E-01   1.00800           0
      9124 MEMB     62       POPC     H14S     HAL2     0.900000E-01   1.00800           0
      9125 MEMB     62       POPC     C215     CTL2    -0.180000       12.0110           0
      9126 MEMB     62       POPC     H15R     HAL2     0.900000E-01   1.00800           0
      9127 MEMB     62       POPC     H15S     HAL2     0.900000E-01   1.00800           0
      9128 MEMB     62       POPC     C216     CTL2    -0.180000       12.0110           0
      9129 MEMB     62       POPC     H16R     HAL2     0.900000E-01   1.00800           0
      9130 MEMB     62       POPC     H16S     HAL2     0.900000E-01   1.00800           0
      9131 MEMB     62       POPC     C217     CTL2    -0.180000       12.0110           0
      9132 MEMB     62       POPC     H17R     HAL2     0.900000E-01   1.00800           0
      9133 MEMB     62       POPC     H17S     HAL2     0.900000E-01   1.00800           0
      9134 MEMB     62       POPC     C218     CTL3    -0.270000       12.0110           0
      9135 MEMB     62       POPC     H18R     HAL3     0.900000E-01   1.00800           0
      9136 MEMB     62       POPC     H18S     HAL3     0.900000E-01   1.00800           0
      9137 MEMB     62       POPC     H18T     HAL3     0.900000E-01   1.00800           0
      9138 MEMB     62       POPC     C33      CTL2    -0.180000       12.0110           0
      9139 MEMB     62       POPC     H3X      HAL2     0.900000E-01   1.00800           0
      9140 MEMB     62       POPC     H3Y      HAL2     0.900000E-01   1.00800           0
      9141 MEMB     62       POPC     C34      CTL2    -0.180000       12.0110           0
      9142 MEMB     62       POPC     H4X      HAL2     0.900000E-01   1.00800           0
      9143 MEMB     62       POPC     H4Y      HAL2     0.900000E-01   1.00800           0
      9144 MEMB     62       POPC     C35      CTL2    -0.180000       12.0110           0
      9145 MEMB     62       POPC     H5X      HAL2     0.900000E-01   1.00800           0
      9146 MEMB     62       POPC     H5Y      HAL2     0.900000E-01   1.00800           0
      9147 MEMB     62       POPC     C36      CTL2    -0.180000       12.0110           0
      9148 MEMB     62       POPC     H6X      HAL2     0.900000E-01   1.00800           0
      9149 MEMB     62       POPC     H6Y      HAL2     0.900000E-01   1.00800           0
      9150 MEMB     62       POPC     C37      CTL2    -0.180000       12.0110           0
      9151 MEMB     62       POPC     H7X      HAL2     0.900000E-01   1.00800           0
      9152 MEMB     62       POPC     H7Y      HAL2     0.900000E-01   1.00800           0
      9153 MEMB     62       POPC     C38      CTL2    -0.180000       12.0110           0
      9154 MEMB     62       POPC     H8X      HAL2     0.900000E-01   1.00800           0
      9155 MEMB     62       POPC     H8Y      HAL2     0.900000E-01   1.00800           0
      9156 MEMB     62       POPC     C39      CTL2    -0.180000       12.0110           0
      9157 MEMB     62       POPC     H9X      HAL2     0.900000E-01   1.00800           0
      9158 MEMB     62       POPC     H9Y      HAL2     0.900000E-01   1.00800           0
      9159 MEMB     62       POPC     C310     CTL2    -0.180000       12.0110           0
      9160 MEMB     62       POPC     H10X     HAL2     0.900000E-01   1.00800           0
      9161 MEMB     62       POPC     H10Y     HAL2     0.900000E-01   1.00800           0
      9162 MEMB     62       POPC     C311     CTL2    -0.180000       12.0110           0
      9163 MEMB     62       POPC     H11X     HAL2     0.900000E-01   1.00800           0
      9164 MEMB     62       POPC     H11Y     HAL2     0.900000E-01   1.00800           0
      9165 MEMB     62       POPC     C312     CTL2    -0.180000       12.0110           0
      9166 MEMB     62       POPC     H12X     HAL2     0.900000E-01   1.00800           0
      9167 MEMB     62       POPC     H12Y     HAL2     0.900000E-01   1.00800           0
      9168 MEMB     62       POPC     C313     CTL2    -0.180000       12.0110           0
      9169 MEMB     62       POPC     H13X     HAL2     0.900000E-01   1.00800           0
      9170 MEMB     62       POPC     H13Y     HAL2     0.900000E-01   1.00800           0
      9171 MEMB     62       POPC     C314     CTL2    -0.180000       12.0110           0
      9172 MEMB     62       POPC     H14X     HAL2     0.900000E-01   1.00800           0
      9173 MEMB     62       POPC     H14Y     HAL2     0.900000E-01   1.00800           0
      9174 MEMB     62       POPC     C315     CTL2    -0.180000       12.0110           0
      9175 MEMB     62       POPC     H15X     HAL2     0.900000E-01   1.00800           0
      9176 MEMB     62       POPC     H15Y     HAL2     0.900000E-01   1.00800           0
      9177 MEMB     62       POPC     C316     CTL3    -0.270000       12.0110           0
      9178 MEMB     62       POPC     H16X     HAL3     0.900000E-01   1.00800           0
      9179 MEMB     62       POPC     H16Y     HAL3     0.900000E-01   1.00800           0
      9180 MEMB     62       POPC     H16Z     HAL3     0.900000E-01   1.00800           0
      9181 MEMB     63       POPC     N        NTL     -0.600000       14.0070           0
      9182 MEMB     63       POPC     C12      CTL2    -0.100000       12.0110           0
      9183 MEMB     63       POPC     H12A     HL       0.250000       1.00800           0
      9184 MEMB     63       POPC     H12B     HL       0.250000       1.00800           0
      9185 MEMB     63       POPC     C13      CTL5    -0.350000       12.0110           0
      9186 MEMB     63       POPC     H13A     HL       0.250000       1.00800           0
      9187 MEMB     63       POPC     H13B     HL       0.250000       1.00800           0
      9188 MEMB     63       POPC     H13C     HL       0.250000       1.00800           0
      9189 MEMB     63       POPC     C14      CTL5    -0.350000       12.0110           0
      9190 MEMB     63       POPC     H14A     HL       0.250000       1.00800           0
      9191 MEMB     63       POPC     H14B     HL       0.250000       1.00800           0
      9192 MEMB     63       POPC     H14C     HL       0.250000       1.00800           0
      9193 MEMB     63       POPC     C15      CTL5    -0.350000       12.0110           0
      9194 MEMB     63       POPC     H15A     HL       0.250000       1.00800           0
      9195 MEMB     63       POPC     H15B     HL       0.250000       1.00800           0
      9196 MEMB     63       POPC     H15C     HL       0.250000       1.00800           0
      9197 MEMB     63       POPC     C11      CTL2    -0.800000E-01   12.0110           0
      9198 MEMB     63       POPC     H11A     HAL2     0.900000E-01   1.00800           0
      9199 MEMB     63       POPC     H11B     HAL2     0.900000E-01   1.00800           0
      9200 MEMB     63       POPC     P        PL        1.50000       30.9740           0
      9201 MEMB     63       POPC     O13      O2L     -0.780000       15.9994           0
      9202 MEMB     63       POPC     O14      O2L     -0.780000       15.9994           0
      9203 MEMB     63       POPC     O12      OSLP    -0.570000       15.9994           0
      9204 MEMB     63       POPC     O11      OSLP    -0.570000       15.9994           0
      9205 MEMB     63       POPC     C1       CTL2    -0.800000E-01   12.0110           0
      9206 MEMB     63       POPC     HA       HAL2     0.900000E-01   1.00800           0
      9207 MEMB     63       POPC     HB       HAL2     0.900000E-01   1.00800           0
      9208 MEMB     63       POPC     C2       CTL1     0.170000       12.0110           0
      9209 MEMB     63       POPC     HS       HAL1     0.900000E-01   1.00800           0
      9210 MEMB     63       POPC     O21      OSL     -0.490000       15.9994           0
      9211 MEMB     63       POPC     C21      CL       0.900000       12.0110           0
      9212 MEMB     63       POPC     O22      OBL     -0.630000       15.9994           0
      9213 MEMB     63       POPC     C22      CTL2    -0.220000       12.0110           0
      9214 MEMB     63       POPC     H2R      HAL2     0.900000E-01   1.00800           0
      9215 MEMB     63       POPC     H2S      HAL2     0.900000E-01   1.00800           0
      9216 MEMB     63       POPC     C3       CTL2     0.800000E-01   12.0110           0
      9217 MEMB     63       POPC     HX       HAL2     0.900000E-01   1.00800           0
      9218 MEMB     63       POPC     HY       HAL2     0.900000E-01   1.00800           0
      9219 MEMB     63       POPC     O31      OSL     -0.490000       15.9994           0
      9220 MEMB     63       POPC     C31      CL       0.900000       12.0110           0
      9221 MEMB     63       POPC     O32      OBL     -0.630000       15.9994           0
      9222 MEMB     63       POPC     C32      CTL2    -0.220000       12.0110           0
      9223 MEMB     63       POPC     H2X      HAL2     0.900000E-01   1.00800           0
      9224 MEMB     63       POPC     H2Y      HAL2     0.900000E-01   1.00800           0
      9225 MEMB     63       POPC     C23      CTL2    -0.180000       12.0110           0
      9226 MEMB     63       POPC     H3R      HAL2     0.900000E-01   1.00800           0
      9227 MEMB     63       POPC     H3S      HAL2     0.900000E-01   1.00800           0
      9228 MEMB     63       POPC     C24      CTL2    -0.180000       12.0110           0
      9229 MEMB     63       POPC     H4R      HAL2     0.900000E-01   1.00800           0
      9230 MEMB     63       POPC     H4S      HAL2     0.900000E-01   1.00800           0
      9231 MEMB     63       POPC     C25      CTL2    -0.180000       12.0110           0
      9232 MEMB     63       POPC     H5R      HAL2     0.900000E-01   1.00800           0
      9233 MEMB     63       POPC     H5S      HAL2     0.900000E-01   1.00800           0
      9234 MEMB     63       POPC     C26      CTL2    -0.180000       12.0110           0
      9235 MEMB     63       POPC     H6R      HAL2     0.900000E-01   1.00800           0
      9236 MEMB     63       POPC     H6S      HAL2     0.900000E-01   1.00800           0
      9237 MEMB     63       POPC     C27      CTL2    -0.180000       12.0110           0
      9238 MEMB     63       POPC     H7R      HAL2     0.900000E-01   1.00800           0
      9239 MEMB     63       POPC     H7S      HAL2     0.900000E-01   1.00800           0
      9240 MEMB     63       POPC     C28      CTL2    -0.180000       12.0110           0
      9241 MEMB     63       POPC     H8R      HAL2     0.900000E-01   1.00800           0
      9242 MEMB     63       POPC     H8S      HAL2     0.900000E-01   1.00800           0
      9243 MEMB     63       POPC     C29      CEL1    -0.150000       12.0110           0
      9244 MEMB     63       POPC     H91      HEL1     0.150000       1.00800           0
      9245 MEMB     63       POPC     C210     CEL1    -0.150000       12.0110           0
      9246 MEMB     63       POPC     H101     HEL1     0.150000       1.00800           0
      9247 MEMB     63       POPC     C211     CTL2    -0.180000       12.0110           0
      9248 MEMB     63       POPC     H11R     HAL2     0.900000E-01   1.00800           0
      9249 MEMB     63       POPC     H11S     HAL2     0.900000E-01   1.00800           0
      9250 MEMB     63       POPC     C212     CTL2    -0.180000       12.0110           0
      9251 MEMB     63       POPC     H12R     HAL2     0.900000E-01   1.00800           0
      9252 MEMB     63       POPC     H12S     HAL2     0.900000E-01   1.00800           0
      9253 MEMB     63       POPC     C213     CTL2    -0.180000       12.0110           0
      9254 MEMB     63       POPC     H13R     HAL2     0.900000E-01   1.00800           0
      9255 MEMB     63       POPC     H13S     HAL2     0.900000E-01   1.00800           0
      9256 MEMB     63       POPC     C214     CTL2    -0.180000       12.0110           0
      9257 MEMB     63       POPC     H14R     HAL2     0.900000E-01   1.00800           0
      9258 MEMB     63       POPC     H14S     HAL2     0.900000E-01   1.00800           0
      9259 MEMB     63       POPC     C215     CTL2    -0.180000       12.0110           0
      9260 MEMB     63       POPC     H15R     HAL2     0.900000E-01   1.00800           0
      9261 MEMB     63       POPC     H15S     HAL2     0.900000E-01   1.00800           0
      9262 MEMB     63       POPC     C216     CTL2    -0.180000       12.0110           0
      9263 MEMB     63       POPC     H16R     HAL2     0.900000E-01   1.00800           0
      9264 MEMB     63       POPC     H16S     HAL2     0.900000E-01   1.00800           0
      9265 MEMB     63       POPC     C217     CTL2    -0.180000       12.0110           0
      9266 MEMB     63       POPC     H17R     HAL2     0.900000E-01   1.00800           0
      9267 MEMB     63       POPC     H17S     HAL2     0.900000E-01   1.00800           0
      9268 MEMB     63       POPC     C218     CTL3    -0.270000       12.0110           0
      9269 MEMB     63       POPC     H18R     HAL3     0.900000E-01   1.00800           0
      9270 MEMB     63       POPC     H18S     HAL3     0.900000E-01   1.00800           0
      9271 MEMB     63       POPC     H18T     HAL3     0.900000E-01   1.00800           0
      9272 MEMB     63       POPC     C33      CTL2    -0.180000       12.0110           0
      9273 MEMB     63       POPC     H3X      HAL2     0.900000E-01   1.00800           0
      9274 MEMB     63       POPC     H3Y      HAL2     0.900000E-01   1.00800           0
      9275 MEMB     63       POPC     C34      CTL2    -0.180000       12.0110           0
      9276 MEMB     63       POPC     H4X      HAL2     0.900000E-01   1.00800           0
      9277 MEMB     63       POPC     H4Y      HAL2     0.900000E-01   1.00800           0
      9278 MEMB     63       POPC     C35      CTL2    -0.180000       12.0110           0
      9279 MEMB     63       POPC     H5X      HAL2     0.900000E-01   1.00800           0
      9280 MEMB     63       POPC     H5Y      HAL2     0.900000E-01   1.00800           0
      9281 MEMB     63       POPC     C36      CTL2    -0.180000       12.0110           0
      9282 MEMB     63       POPC     H6X      HAL2     0.900000E-01   1.00800           0
      9283 MEMB     63       POPC     H6Y      HAL2     0.900000E-01   1.00800           0
      9284 MEMB     63       POPC     C37      CTL2    -0.180000       12.0110           0
      9285 MEMB     63       POPC     H7X      HAL2     0.900000E-01   1.00800           0
      9286 MEMB     63       POPC     H7Y      HAL2     0.900000E-01   1.00800           0
      9287 MEMB     63       POPC     C38      CTL2    -0.180000       12.0110           0
      9288 MEMB     63       POPC     H8X      HAL2     0.900000E-01   1.00800           0
      9289 MEMB     63       POPC     H8Y      HAL2     0.900000E-01   1.00800           0
      9290 MEMB     63       POPC     C39      CTL2    -0.180000       12.0110           0
      9291 MEMB     63       POPC     H9X      HAL2     0.900000E-01   1.00800           0
      9292 MEMB     63       POPC     H9Y      HAL2     0.900000E-01   1.00800           0
      9293 MEMB     63       POPC     C310     CTL2    -0.180000       12.0110           0
      9294 MEMB     63       POPC     H10X     HAL2     0.900000E-01   1.00800           0
      9295 MEMB     63       POPC     H10Y     HAL2     0.900000E-01   1.00800           0
      9296 MEMB     63       POPC     C311     CTL2    -0.180000       12.0110           0
      9297 MEMB     63       POPC     H11X     HAL2     0.900000E-01   1.00800           0
      9298 MEMB     63       POPC     H11Y     HAL2     0.900000E-01   1.00800           0
      9299 MEMB     63       POPC     C312     CTL2    -0.180000       12.0110           0
      9300 MEMB     63       POPC     H12X     HAL2     0.900000E-01   1.00800           0
      9301 MEMB     63       POPC     H12Y     HAL2     0.900000E-01   1.00800           0
      9302 MEMB     63       POPC     C313     CTL2    -0.180000       12.0110           0
      9303 MEMB     63       POPC     H13X     HAL2     0.900000E-01   1.00800           0
      9304 MEMB     63       POPC     H13Y     HAL2     0.900000E-01   1.00800           0
      9305 MEMB     63       POPC     C314     CTL2    -0.180000       12.0110           0
      9306 MEMB     63       POPC     H14X     HAL2     0.900000E-01   1.00800           0
      9307 MEMB     63       POPC     H14Y     HAL2     0.900000E-01   1.00800           0
      9308 MEMB     63       POPC     C315     CTL2    -0.180000       12.0110           0
      9309 MEMB     63       POPC     H15X     HAL2     0.900000E-01   1.00800           0
      9310 MEMB     63       POPC     H15Y     HAL2     0.900000E-01   1.00800           0
      9311 MEMB     63       POPC     C316     CTL3    -0.270000       12.0110           0
      9312 MEMB     63       POPC     H16X     HAL3     0.900000E-01   1.00800           0
      9313 MEMB     63       POPC     H16Y     HAL3     0.900000E-01   1.00800           0
      9314 MEMB     63       POPC     H16Z     HAL3     0.900000E-01   1.00800           0
      9315 MEMB     64       POPC     N        NTL     -0.600000       14.0070           0
      9316 MEMB     64       POPC     C12      CTL2    -0.100000       12.0110           0
      9317 MEMB     64       POPC     H12A     HL       0.250000       1.00800           0
      9318 MEMB     64       POPC     H12B     HL       0.250000       1.00800           0
      9319 MEMB     64       POPC     C13      CTL5    -0.350000       12.0110           0
      9320 MEMB     64       POPC     H13A     HL       0.250000       1.00800           0
      9321 MEMB     64       POPC     H13B     HL       0.250000       1.00800           0
      9322 MEMB     64       POPC     H13C     HL       0.250000       1.00800           0
      9323 MEMB     64       POPC     C14      CTL5    -0.350000       12.0110           0
      9324 MEMB     64       POPC     H14A     HL       0.250000       1.00800           0
      9325 MEMB     64       POPC     H14B     HL       0.250000       1.00800           0
      9326 MEMB     64       POPC     H14C     HL       0.250000       1.00800           0
      9327 MEMB     64       POPC     C15      CTL5    -0.350000       12.0110           0
      9328 MEMB     64       POPC     H15A     HL       0.250000       1.00800           0
      9329 MEMB     64       POPC     H15B     HL       0.250000       1.00800           0
      9330 MEMB     64       POPC     H15C     HL       0.250000       1.00800           0
      9331 MEMB     64       POPC     C11      CTL2    -0.800000E-01   12.0110           0
      9332 MEMB     64       POPC     H11A     HAL2     0.900000E-01   1.00800           0
      9333 MEMB     64       POPC     H11B     HAL2     0.900000E-01   1.00800           0
      9334 MEMB     64       POPC     P        PL        1.50000       30.9740           0
      9335 MEMB     64       POPC     O13      O2L     -0.780000       15.9994           0
      9336 MEMB     64       POPC     O14      O2L     -0.780000       15.9994           0
      9337 MEMB     64       POPC     O12      OSLP    -0.570000       15.9994           0
      9338 MEMB     64       POPC     O11      OSLP    -0.570000       15.9994           0
      9339 MEMB     64       POPC     C1       CTL2    -0.800000E-01   12.0110           0
      9340 MEMB     64       POPC     HA       HAL2     0.900000E-01   1.00800           0
      9341 MEMB     64       POPC     HB       HAL2     0.900000E-01   1.00800           0
      9342 MEMB     64       POPC     C2       CTL1     0.170000       12.0110           0
      9343 MEMB     64       POPC     HS       HAL1     0.900000E-01   1.00800           0
      9344 MEMB     64       POPC     O21      OSL     -0.490000       15.9994           0
      9345 MEMB     64       POPC     C21      CL       0.900000       12.0110           0
      9346 MEMB     64       POPC     O22      OBL     -0.630000       15.9994           0
      9347 MEMB     64       POPC     C22      CTL2    -0.220000       12.0110           0
      9348 MEMB     64       POPC     H2R      HAL2     0.900000E-01   1.00800           0
      9349 MEMB     64       POPC     H2S      HAL2     0.900000E-01   1.00800           0
      9350 MEMB     64       POPC     C3       CTL2     0.800000E-01   12.0110           0
      9351 MEMB     64       POPC     HX       HAL2     0.900000E-01   1.00800           0
      9352 MEMB     64       POPC     HY       HAL2     0.900000E-01   1.00800           0
      9353 MEMB     64       POPC     O31      OSL     -0.490000       15.9994           0
      9354 MEMB     64       POPC     C31      CL       0.900000       12.0110           0
      9355 MEMB     64       POPC     O32      OBL     -0.630000       15.9994           0
      9356 MEMB     64       POPC     C32      CTL2    -0.220000       12.0110           0
      9357 MEMB     64       POPC     H2X      HAL2     0.900000E-01   1.00800           0
      9358 MEMB     64       POPC     H2Y      HAL2     0.900000E-01   1.00800           0
      9359 MEMB     64       POPC     C23      CTL2    -0.180000       12.0110           0
      9360 MEMB     64       POPC     H3R      HAL2     0.900000E-01   1.00800           0
      9361 MEMB     64       POPC     H3S      HAL2     0.900000E-01   1.00800           0
      9362 MEMB     64       POPC     C24      CTL2    -0.180000       12.0110           0
      9363 MEMB     64       POPC     H4R      HAL2     0.900000E-01   1.00800           0
      9364 MEMB     64       POPC     H4S      HAL2     0.900000E-01   1.00800           0
      9365 MEMB     64       POPC     C25      CTL2    -0.180000       12.0110           0
      9366 MEMB     64       POPC     H5R      HAL2     0.900000E-01   1.00800           0
      9367 MEMB     64       POPC     H5S      HAL2     0.900000E-01   1.00800           0
      9368 MEMB     64       POPC     C26      CTL2    -0.180000       12.0110           0
      9369 MEMB     64       POPC     H6R      HAL2     0.900000E-01   1.00800           0
      9370 MEMB     64       POPC     H6S      HAL2     0.900000E-01   1.00800           0
      9371 MEMB     64       POPC     C27      CTL2    -0.180000       12.0110           0
      9372 MEMB     64       POPC     H7R      HAL2     0.900000E-01   1.00800           0
      9373 MEMB     64       POPC     H7S      HAL2     0.900000E-01   1.00800           0
      9374 MEMB     64       POPC     C28      CTL2    -0.180000       12.0110           0
      9375 MEMB     64       POPC     H8R      HAL2     0.900000E-01   1.00800           0
      9376 MEMB     64       POPC     H8S      HAL2     0.900000E-01   1.00800           0
      9377 MEMB     64       POPC     C29      CEL1    -0.150000       12.0110           0
      9378 MEMB     64       POPC     H91      HEL1     0.150000       1.00800           0
      9379 MEMB     64       POPC     C210     CEL1    -0.150000       12.0110           0
      9380 MEMB     64       POPC     H101     HEL1     0.150000       1.00800           0
      9381 MEMB     64       POPC     C211     CTL2    -0.180000       12.0110           0
      9382 MEMB     64       POPC     H11R     HAL2     0.900000E-01   1.00800           0
      9383 MEMB     64       POPC     H11S     HAL2     0.900000E-01   1.00800           0
      9384 MEMB     64       POPC     C212     CTL2    -0.180000       12.0110           0
      9385 MEMB     64       POPC     H12R     HAL2     0.900000E-01   1.00800           0
      9386 MEMB     64       POPC     H12S     HAL2     0.900000E-01   1.00800           0
      9387 MEMB     64       POPC     C213     CTL2    -0.180000       12.0110           0
      9388 MEMB     64       POPC     H13R     HAL2     0.900000E-01   1.00800           0
      9389 MEMB     64       POPC     H13S     HAL2     0.900000E-01   1.00800           0
      9390 MEMB     64       POPC     C214     CTL2    -0.180000       12.0110           0
      9391 MEMB     64       POPC     H14R     HAL2     0.900000E-01   1.00800           0
      9392 MEMB     64       POPC     H14S     HAL2     0.900000E-01   1.00800           0
      9393 MEMB     64       POPC     C215     CTL2    -0.180000       12.0110           0
      9394 MEMB     64       POPC     H15R     HAL2     0.900000E-01   1.00800           0
      9395 MEMB     64       POPC     H15S     HAL2     0.900000E-01   1.00800           0
      9396 MEMB     64       POPC     C216     CTL2    -0.180000       12.0110           0
      9397 MEMB     64       POPC     H16R     HAL2     0.900000E-01   1.00800           0
      9398 MEMB     64       POPC     H16S     HAL2     0.900000E-01   1.00800           0
      9399 MEMB     64       POPC     C217     CTL2    -0.180000       12.0110           0
      9400 MEMB     64       POPC     H17R     HAL2     0.900000E-01   1.00800           0
      9401 MEMB     64       POPC     H17S     HAL2     0.900000E-01   1.00800           0
      9402 MEMB     64       POPC     C218     CTL3    -0.270000       12.0110           0
      9403 MEMB     64       POPC     H18R     HAL3     0.900000E-01   1.00800           0
      9404 MEMB     64       POPC     H18S     HAL3     0.900000E-01   1.00800           0
      9405 MEMB     64       POPC     H18T     HAL3     0.900000E-01   1.00800           0
      9406 MEMB     64       POPC     C33      CTL2    -0.180000       12.0110           0
      9407 MEMB     64       POPC     H3X      HAL2     0.900000E-01   1.00800           0
      9408 MEMB     64       POPC     H3Y      HAL2     0.900000E-01   1.00800           0
      9409 MEMB     64       POPC     C34      CTL2    -0.180000       12.0110           0
      9410 MEMB     64       POPC     H4X      HAL2     0.900000E-01   1.00800           0
      9411 MEMB     64       POPC     H4Y      HAL2     0.900000E-01   1.00800           0
      9412 MEMB     64       POPC     C35      CTL2    -0.180000       12.0110           0
      9413 MEMB     64       POPC     H5X      HAL2     0.900000E-01   1.00800           0
      9414 MEMB     64       POPC     H5Y      HAL2     0.900000E-01   1.00800           0
      9415 MEMB     64       POPC     C36      CTL2    -0.180000       12.0110           0
      9416 MEMB     64       POPC     H6X      HAL2     0.900000E-01   1.00800           0
      9417 MEMB     64       POPC     H6Y      HAL2     0.900000E-01   1.00800           0
      9418 MEMB     64       POPC     C37      CTL2    -0.180000       12.0110           0
      9419 MEMB     64       POPC     H7X      HAL2     0.900000E-01   1.00800           0
      9420 MEMB     64       POPC     H7Y      HAL2     0.900000E-01   1.00800           0
      9421 MEMB     64       POPC     C38      CTL2    -0.180000       12.0110           0
      9422 MEMB     64       POPC     H8X      HAL2     0.900000E-01   1.00800           0
      9423 MEMB     64       POPC     H8Y      HAL2     0.900000E-01   1.00800           0
      9424 MEMB     64       POPC     C39      CTL2    -0.180000       12.0110           0
      9425 MEMB     64       POPC     H9X      HAL2     0.900000E-01   1.00800           0
      9426 MEMB     64       POPC     H9Y      HAL2     0.900000E-01   1.00800           0
      9427 MEMB     64       POPC     C310     CTL2    -0.180000       12.0110           0
      9428 MEMB     64       POPC     H10X     HAL2     0.900000E-01   1.00800           0
      9429 MEMB     64       POPC     H10Y     HAL2     0.900000E-01   1.00800           0
      9430 MEMB     64       POPC     C311     CTL2    -0.180000       12.0110           0
      9431 MEMB     64       POPC     H11X     HAL2     0.900000E-01   1.00800           0
      9432 MEMB     64       POPC     H11Y     HAL2     0.900000E-01   1.00800           0
      9433 MEMB     64       POPC     C312     CTL2    -0.180000       12.0110           0
      9434 MEMB     64       POPC     H12X     HAL2     0.900000E-01   1.00800           0
      9435 MEMB     64       POPC     H12Y     HAL2     0.900000E-01   1.00800           0
      9436 MEMB     64       POPC     C313     CTL2    -0.180000       12.0110           0
      9437 MEMB     64       POPC     H13X     HAL2     0.900000E-01   1.00800           0
      9438 MEMB     64       POPC     H13Y     HAL2     0.900000E-01   1.00800           0
      9439 MEMB     64       POPC     C314     CTL2    -0.180000       12.0110           0
      9440 MEMB     64       POPC     H14X     HAL2     0.900000E-01   1.00800           0
      9441 MEMB     64       POPC     H14Y     HAL2     0.900000E-01   1.00800           0
      9442 MEMB     64       POPC     C315     CTL2    -0.180000       12.0110           0
      9443 MEMB     64       POPC     H15X     HAL2     0.900000E-01   1.00800           0
      9444 MEMB     64       POPC     H15Y     HAL2     0.900000E-01   1.00800           0
      9445 MEMB     64       POPC     C316     CTL3    -0.270000       12.0110           0
      9446 MEMB     64       POPC     H16X     HAL3     0.900000E-01   1.00800           0
      9447 MEMB     64       POPC     H16Y     HAL3     0.900000E-01   1.00800           0
      9448 MEMB     64       POPC     H16Z     HAL3     0.900000E-01   1.00800           0
      9449 MEMB     65       POPC     N        NTL     -0.600000       14.0070           0
      9450 MEMB     65       POPC     C12      CTL2    -0.100000       12.0110           0
      9451 MEMB     65       POPC     H12A     HL       0.250000       1.00800           0
      9452 MEMB     65       POPC     H12B     HL       0.250000       1.00800           0
      9453 MEMB     65       POPC     C13      CTL5    -0.350000       12.0110           0
      9454 MEMB     65       POPC     H13A     HL       0.250000       1.00800           0
      9455 MEMB     65       POPC     H13B     HL       0.250000       1.00800           0
      9456 MEMB     65       POPC     H13C     HL       0.250000       1.00800           0
      9457 MEMB     65       POPC     C14      CTL5    -0.350000       12.0110           0
      9458 MEMB     65       POPC     H14A     HL       0.250000       1.00800           0
      9459 MEMB     65       POPC     H14B     HL       0.250000       1.00800           0
      9460 MEMB     65       POPC     H14C     HL       0.250000       1.00800           0
      9461 MEMB     65       POPC     C15      CTL5    -0.350000       12.0110           0
      9462 MEMB     65       POPC     H15A     HL       0.250000       1.00800           0
      9463 MEMB     65       POPC     H15B     HL       0.250000       1.00800           0
      9464 MEMB     65       POPC     H15C     HL       0.250000       1.00800           0
      9465 MEMB     65       POPC     C11      CTL2    -0.800000E-01   12.0110           0
      9466 MEMB     65       POPC     H11A     HAL2     0.900000E-01   1.00800           0
      9467 MEMB     65       POPC     H11B     HAL2     0.900000E-01   1.00800           0
      9468 MEMB     65       POPC     P        PL        1.50000       30.9740           0
      9469 MEMB     65       POPC     O13      O2L     -0.780000       15.9994           0
      9470 MEMB     65       POPC     O14      O2L     -0.780000       15.9994           0
      9471 MEMB     65       POPC     O12      OSLP    -0.570000       15.9994           0
      9472 MEMB     65       POPC     O11      OSLP    -0.570000       15.9994           0
      9473 MEMB     65       POPC     C1       CTL2    -0.800000E-01   12.0110           0
      9474 MEMB     65       POPC     HA       HAL2     0.900000E-01   1.00800           0
      9475 MEMB     65       POPC     HB       HAL2     0.900000E-01   1.00800           0
      9476 MEMB     65       POPC     C2       CTL1     0.170000       12.0110           0
      9477 MEMB     65       POPC     HS       HAL1     0.900000E-01   1.00800           0
      9478 MEMB     65       POPC     O21      OSL     -0.490000       15.9994           0
      9479 MEMB     65       POPC     C21      CL       0.900000       12.0110           0
      9480 MEMB     65       POPC     O22      OBL     -0.630000       15.9994           0
      9481 MEMB     65       POPC     C22      CTL2    -0.220000       12.0110           0
      9482 MEMB     65       POPC     H2R      HAL2     0.900000E-01   1.00800           0
      9483 MEMB     65       POPC     H2S      HAL2     0.900000E-01   1.00800           0
      9484 MEMB     65       POPC     C3       CTL2     0.800000E-01   12.0110           0
      9485 MEMB     65       POPC     HX       HAL2     0.900000E-01   1.00800           0
      9486 MEMB     65       POPC     HY       HAL2     0.900000E-01   1.00800           0
      9487 MEMB     65       POPC     O31      OSL     -0.490000       15.9994           0
      9488 MEMB     65       POPC     C31      CL       0.900000       12.0110           0
      9489 MEMB     65       POPC     O32      OBL     -0.630000       15.9994           0
      9490 MEMB     65       POPC     C32      CTL2    -0.220000       12.0110           0
      9491 MEMB     65       POPC     H2X      HAL2     0.900000E-01   1.00800           0
      9492 MEMB     65       POPC     H2Y      HAL2     0.900000E-01   1.00800           0
      9493 MEMB     65       POPC     C23      CTL2    -0.180000       12.0110           0
      9494 MEMB     65       POPC     H3R      HAL2     0.900000E-01   1.00800           0
      9495 MEMB     65       POPC     H3S      HAL2     0.900000E-01   1.00800           0
      9496 MEMB     65       POPC     C24      CTL2    -0.180000       12.0110           0
      9497 MEMB     65       POPC     H4R      HAL2     0.900000E-01   1.00800           0
      9498 MEMB     65       POPC     H4S      HAL2     0.900000E-01   1.00800           0
      9499 MEMB     65       POPC     C25      CTL2    -0.180000       12.0110           0
      9500 MEMB     65       POPC     H5R      HAL2     0.900000E-01   1.00800           0
      9501 MEMB     65       POPC     H5S      HAL2     0.900000E-01   1.00800           0
      9502 MEMB     65       POPC     C26      CTL2    -0.180000       12.0110           0
      9503 MEMB     65       POPC     H6R      HAL2     0.900000E-01   1.00800           0
      9504 MEMB     65       POPC     H6S      HAL2     0.900000E-01   1.00800           0
      9505 MEMB     65       POPC     C27      CTL2    -0.180000       12.0110           0
      9506 MEMB     65       POPC     H7R      HAL2     0.900000E-01   1.00800           0
      9507 MEMB     65       POPC     H7S      HAL2     0.900000E-01   1.00800           0
      9508 MEMB     65       POPC     C28      CTL2    -0.180000       12.0110           0
      9509 MEMB     65       POPC     H8R      HAL2     0.900000E-01   1.00800           0
      9510 MEMB     65       POPC     H8S      HAL2     0.900000E-01   1.00800           0
      9511 MEMB     65       POPC     C29      CEL1    -0.150000       12.0110           0
      9512 MEMB     65       POPC     H91      HEL1     0.150000       1.00800           0
      9513 MEMB     65       POPC     C210     CEL1    -0.150000       12.0110           0
      9514 MEMB     65       POPC     H101     HEL1     0.150000       1.00800           0
      9515 MEMB     65       POPC     C211     CTL2    -0.180000       12.0110           0
      9516 MEMB     65       POPC     H11R     HAL2     0.900000E-01   1.00800           0
      9517 MEMB     65       POPC     H11S     HAL2     0.900000E-01   1.00800           0
      9518 MEMB     65       POPC     C212     CTL2    -0.180000       12.0110           0
      9519 MEMB     65       POPC     H12R     HAL2     0.900000E-01   1.00800           0
      9520 MEMB     65       POPC     H12S     HAL2     0.900000E-01   1.00800           0
      9521 MEMB     65       POPC     C213     CTL2    -0.180000       12.0110           0
      9522 MEMB     65       POPC     H13R     HAL2     0.900000E-01   1.00800           0
      9523 MEMB     65       POPC     H13S     HAL2     0.900000E-01   1.00800           0
      9524 MEMB     65       POPC     C214     CTL2    -0.180000       12.0110           0
      9525 MEMB     65       POPC     H14R     HAL2     0.900000E-01   1.00800           0
      9526 MEMB     65       POPC     H14S     HAL2     0.900000E-01   1.00800           0
      9527 MEMB     65       POPC     C215     CTL2    -0.180000       12.0110           0
      9528 MEMB     65       POPC     H15R     HAL2     0.900000E-01   1.00800           0
      9529 MEMB     65       POPC     H15S     HAL2     0.900000E-01   1.00800           0
      9530 MEMB     65       POPC     C216     CTL2    -0.180000       12.0110           0
      9531 MEMB     65       POPC     H16R     HAL2     0.900000E-01   1.00800           0
      9532 MEMB     65       POPC     H16S     HAL2     0.900000E-01   1.00800           0
      9533 MEMB     65       POPC     C217     CTL2    -0.180000       12.0110           0
      9534 MEMB     65       POPC     H17R     HAL2     0.900000E-01   1.00800           0
      9535 MEMB     65       POPC     H17S     HAL2     0.900000E-01   1.00800           0
      9536 MEMB     65       POPC     C218     CTL3    -0.270000       12.0110           0
      9537 MEMB     65       POPC     H18R     HAL3     0.900000E-01   1.00800           0
      9538 MEMB     65       POPC     H18S     HAL3     0.900000E-01   1.00800           0
      9539 MEMB     65       POPC     H18T     HAL3     0.900000E-01   1.00800           0
      9540 MEMB     65       POPC     C33      CTL2    -0.180000       12.0110           0
      9541 MEMB     65       POPC     H3X      HAL2     0.900000E-01   1.00800           0
      9542 MEMB     65       POPC     H3Y      HAL2     0.900000E-01   1.00800           0
      9543 MEMB     65       POPC     C34      CTL2    -0.180000       12.0110           0
      9544 MEMB     65       POPC     H4X      HAL2     0.900000E-01   1.00800           0
      9545 MEMB     65       POPC     H4Y      HAL2     0.900000E-01   1.00800           0
      9546 MEMB     65       POPC     C35      CTL2    -0.180000       12.0110           0
      9547 MEMB     65       POPC     H5X      HAL2     0.900000E-01   1.00800           0
      9548 MEMB     65       POPC     H5Y      HAL2     0.900000E-01   1.00800           0
      9549 MEMB     65       POPC     C36      CTL2    -0.180000       12.0110           0
      9550 MEMB     65       POPC     H6X      HAL2     0.900000E-01   1.00800           0
      9551 MEMB     65       POPC     H6Y      HAL2     0.900000E-01   1.00800           0
      9552 MEMB     65       POPC     C37      CTL2    -0.180000       12.0110           0
      9553 MEMB     65       POPC     H7X      HAL2     0.900000E-01   1.00800           0
      9554 MEMB     65       POPC     H7Y      HAL2     0.900000E-01   1.00800           0
      9555 MEMB     65       POPC     C38      CTL2    -0.180000       12.0110           0
      9556 MEMB     65       POPC     H8X      HAL2     0.900000E-01   1.00800           0
      9557 MEMB     65       POPC     H8Y      HAL2     0.900000E-01   1.00800           0
      9558 MEMB     65       POPC     C39      CTL2    -0.180000       12.0110           0
      9559 MEMB     65       POPC     H9X      HAL2     0.900000E-01   1.00800           0
      9560 MEMB     65       POPC     H9Y      HAL2     0.900000E-01   1.00800           0
      9561 MEMB     65       POPC     C310     CTL2    -0.180000       12.0110           0
      9562 MEMB     65       POPC     H10X     HAL2     0.900000E-01   1.00800           0
      9563 MEMB     65       POPC     H10Y     HAL2     0.900000E-01   1.00800           0
      9564 MEMB     65       POPC     C311     CTL2    -0.180000       12.0110           0
      9565 MEMB     65       POPC     H11X     HAL2     0.900000E-01   1.00800           0
      9566 MEMB     65       POPC     H11Y     HAL2     0.900000E-01   1.00800           0
      9567 MEMB     65       POPC     C312     CTL2    -0.180000       12.0110           0
      9568 MEMB     65       POPC     H12X     HAL2     0.900000E-01   1.00800           0
      9569 MEMB     65       POPC     H12Y     HAL2     0.900000E-01   1.00800           0
      9570 MEMB     65       POPC     C313     CTL2    -0.180000       12.0110           0
      9571 MEMB     65       POPC     H13X     HAL2     0.900000E-01   1.00800           0
      9572 MEMB     65       POPC     H13Y     HAL2     0.900000E-01   1.00800           0
      9573 MEMB     65       POPC     C314     CTL2    -0.180000       12.0110           0
      9574 MEMB     65       POPC     H14X     HAL2     0.900000E-01   1.00800           0
      9575 MEMB     65       POPC     H14Y     HAL2     0.900000E-01   1.00800           0
      9576 MEMB     65       POPC     C315     CTL2    -0.180000       12.0110           0
      9577 MEMB     65       POPC     H15X     HAL2     0.900000E-01   1.00800           0
      9578 MEMB     65       POPC     H15Y     HAL2     0.900000E-01   1.00800           0
      9579 MEMB     65       POPC     C316     CTL3    -0.270000       12.0110           0
      9580 MEMB     65       POPC     H16X     HAL3     0.900000E-01   1.00800           0
      9581 MEMB     65       POPC     H16Y     HAL3     0.900000E-01   1.00800           0
      9582 MEMB     65       POPC     H16Z     HAL3     0.900000E-01   1.00800           0
      9583 MEMB     66       POPC     N        NTL     -0.600000       14.0070           0
      9584 MEMB     66       POPC     C12      CTL2    -0.100000       12.0110           0
      9585 MEMB     66       POPC     H12A     HL       0.250000       1.00800           0
      9586 MEMB     66       POPC     H12B     HL       0.250000       1.00800           0
      9587 MEMB     66       POPC     C13      CTL5    -0.350000       12.0110           0
      9588 MEMB     66       POPC     H13A     HL       0.250000       1.00800           0
      9589 MEMB     66       POPC     H13B     HL       0.250000       1.00800           0
      9590 MEMB     66       POPC     H13C     HL       0.250000       1.00800           0
      9591 MEMB     66       POPC     C14      CTL5    -0.350000       12.0110           0
      9592 MEMB     66       POPC     H14A     HL       0.250000       1.00800           0
      9593 MEMB     66       POPC     H14B     HL       0.250000       1.00800           0
      9594 MEMB     66       POPC     H14C     HL       0.250000       1.00800           0
      9595 MEMB     66       POPC     C15      CTL5    -0.350000       12.0110           0
      9596 MEMB     66       POPC     H15A     HL       0.250000       1.00800           0
      9597 MEMB     66       POPC     H15B     HL       0.250000       1.00800           0
      9598 MEMB     66       POPC     H15C     HL       0.250000       1.00800           0
      9599 MEMB     66       POPC     C11      CTL2    -0.800000E-01   12.0110           0
      9600 MEMB     66       POPC     H11A     HAL2     0.900000E-01   1.00800           0
      9601 MEMB     66       POPC     H11B     HAL2     0.900000E-01   1.00800           0
      9602 MEMB     66       POPC     P        PL        1.50000       30.9740           0
      9603 MEMB     66       POPC     O13      O2L     -0.780000       15.9994           0
      9604 MEMB     66       POPC     O14      O2L     -0.780000       15.9994           0
      9605 MEMB     66       POPC     O12      OSLP    -0.570000       15.9994           0
      9606 MEMB     66       POPC     O11      OSLP    -0.570000       15.9994           0
      9607 MEMB     66       POPC     C1       CTL2    -0.800000E-01   12.0110           0
      9608 MEMB     66       POPC     HA       HAL2     0.900000E-01   1.00800           0
      9609 MEMB     66       POPC     HB       HAL2     0.900000E-01   1.00800           0
      9610 MEMB     66       POPC     C2       CTL1     0.170000       12.0110           0
      9611 MEMB     66       POPC     HS       HAL1     0.900000E-01   1.00800           0
      9612 MEMB     66       POPC     O21      OSL     -0.490000       15.9994           0
      9613 MEMB     66       POPC     C21      CL       0.900000       12.0110           0
      9614 MEMB     66       POPC     O22      OBL     -0.630000       15.9994           0
      9615 MEMB     66       POPC     C22      CTL2    -0.220000       12.0110           0
      9616 MEMB     66       POPC     H2R      HAL2     0.900000E-01   1.00800           0
      9617 MEMB     66       POPC     H2S      HAL2     0.900000E-01   1.00800           0
      9618 MEMB     66       POPC     C3       CTL2     0.800000E-01   12.0110           0
      9619 MEMB     66       POPC     HX       HAL2     0.900000E-01   1.00800           0
      9620 MEMB     66       POPC     HY       HAL2     0.900000E-01   1.00800           0
      9621 MEMB     66       POPC     O31      OSL     -0.490000       15.9994           0
      9622 MEMB     66       POPC     C31      CL       0.900000       12.0110           0
      9623 MEMB     66       POPC     O32      OBL     -0.630000       15.9994           0
      9624 MEMB     66       POPC     C32      CTL2    -0.220000       12.0110           0
      9625 MEMB     66       POPC     H2X      HAL2     0.900000E-01   1.00800           0
      9626 MEMB     66       POPC     H2Y      HAL2     0.900000E-01   1.00800           0
      9627 MEMB     66       POPC     C23      CTL2    -0.180000       12.0110           0
      9628 MEMB     66       POPC     H3R      HAL2     0.900000E-01   1.00800           0
      9629 MEMB     66       POPC     H3S      HAL2     0.900000E-01   1.00800           0
      9630 MEMB     66       POPC     C24      CTL2    -0.180000       12.0110           0
      9631 MEMB     66       POPC     H4R      HAL2     0.900000E-01   1.00800           0
      9632 MEMB     66       POPC     H4S      HAL2     0.900000E-01   1.00800           0
      9633 MEMB     66       POPC     C25      CTL2    -0.180000       12.0110           0
      9634 MEMB     66       POPC     H5R      HAL2     0.900000E-01   1.00800           0
      9635 MEMB     66       POPC     H5S      HAL2     0.900000E-01   1.00800           0
      9636 MEMB     66       POPC     C26      CTL2    -0.180000       12.0110           0
      9637 MEMB     66       POPC     H6R      HAL2     0.900000E-01   1.00800           0
      9638 MEMB     66       POPC     H6S      HAL2     0.900000E-01   1.00800           0
      9639 MEMB     66       POPC     C27      CTL2    -0.180000       12.0110           0
      9640 MEMB     66       POPC     H7R      HAL2     0.900000E-01   1.00800           0
      9641 MEMB     66       POPC     H7S      HAL2     0.900000E-01   1.00800           0
      9642 MEMB     66       POPC     C28      CTL2    -0.180000       12.0110           0
      9643 MEMB     66       POPC     H8R      HAL2     0.900000E-01   1.00800           0
      9644 MEMB     66       POPC     H8S      HAL2     0.900000E-01   1.00800           0
      9645 MEMB     66       POPC     C29      CEL1    -0.150000       12.0110           0
      9646 MEMB     66       POPC     H91      HEL1     0.150000       1.00800           0
      9647 MEMB     66       POPC     C210     CEL1    -0.150000       12.0110           0
      9648 MEMB     66       POPC     H101     HEL1     0.150000       1.00800           0
      9649 MEMB     66       POPC     C211     CTL2    -0.180000       12.0110           0
      9650 MEMB     66       POPC     H11R     HAL2     0.900000E-01   1.00800           0
      9651 MEMB     66       POPC     H11S     HAL2     0.900000E-01   1.00800           0
      9652 MEMB     66       POPC     C212     CTL2    -0.180000       12.0110           0
      9653 MEMB     66       POPC     H12R     HAL2     0.900000E-01   1.00800           0
      9654 MEMB     66       POPC     H12S     HAL2     0.900000E-01   1.00800           0
      9655 MEMB     66       POPC     C213     CTL2    -0.180000       12.0110           0
      9656 MEMB     66       POPC     H13R     HAL2     0.900000E-01   1.00800           0
      9657 MEMB     66       POPC     H13S     HAL2     0.900000E-01   1.00800           0
      9658 MEMB     66       POPC     C214     CTL2    -0.180000       12.0110           0
      9659 MEMB     66       POPC     H14R     HAL2     0.900000E-01   1.00800           0
      9660 MEMB     66       POPC     H14S     HAL2     0.900000E-01   1.00800           0
      9661 MEMB     66       POPC     C215     CTL2    -0.180000       12.0110           0
      9662 MEMB     66       POPC     H15R     HAL2     0.900000E-01   1.00800           0
      9663 MEMB     66       POPC     H15S     HAL2     0.900000E-01   1.00800           0
      9664 MEMB     66       POPC     C216     CTL2    -0.180000       12.0110           0
      9665 MEMB     66       POPC     H16R     HAL2     0.900000E-01   1.00800           0
      9666 MEMB     66       POPC     H16S     HAL2     0.900000E-01   1.00800           0
      9667 MEMB     66       POPC     C217     CTL2    -0.180000       12.0110           0
      9668 MEMB     66       POPC     H17R     HAL2     0.900000E-01   1.00800           0
      9669 MEMB     66       POPC     H17S     HAL2     0.900000E-01   1.00800           0
      9670 MEMB     66       POPC     C218     CTL3    -0.270000       12.0110           0
      9671 MEMB     66       POPC     H18R     HAL3     0.900000E-01   1.00800           0
      9672 MEMB     66       POPC     H18S     HAL3     0.900000E-01   1.00800           0
      9673 MEMB     66       POPC     H18T     HAL3     0.900000E-01   1.00800           0
      9674 MEMB     66       POPC     C33      CTL2    -0.180000       12.0110           0
      9675 MEMB     66       POPC     H3X      HAL2     0.900000E-01   1.00800           0
      9676 MEMB     66       POPC     H3Y      HAL2     0.900000E-01   1.00800           0
      9677 MEMB     66       POPC     C34      CTL2    -0.180000       12.0110           0
      9678 MEMB     66       POPC     H4X      HAL2     0.900000E-01   1.00800           0
      9679 MEMB     66       POPC     H4Y      HAL2     0.900000E-01   1.00800           0
      9680 MEMB     66       POPC     C35      CTL2    -0.180000       12.0110           0
      9681 MEMB     66       POPC     H5X      HAL2     0.900000E-01   1.00800           0
      9682 MEMB     66       POPC     H5Y      HAL2     0.900000E-01   1.00800           0
      9683 MEMB     66       POPC     C36      CTL2    -0.180000       12.0110           0
      9684 MEMB     66       POPC     H6X      HAL2     0.900000E-01   1.00800           0
      9685 MEMB     66       POPC     H6Y      HAL2     0.900000E-01   1.00800           0
      9686 MEMB     66       POPC     C37      CTL2    -0.180000       12.0110           0
      9687 MEMB     66       POPC     H7X      HAL2     0.900000E-01   1.00800           0
      9688 MEMB     66       POPC     H7Y      HAL2     0.900000E-01   1.00800           0
      9689 MEMB     66       POPC     C38      CTL2    -0.180000       12.0110           0
      9690 MEMB     66       POPC     H8X      HAL2     0.900000E-01   1.00800           0
      9691 MEMB     66       POPC     H8Y      HAL2     0.900000E-01   1.00800           0
      9692 MEMB     66       POPC     C39      CTL2    -0.180000       12.0110           0
      9693 MEMB     66       POPC     H9X      HAL2     0.900000E-01   1.00800           0
      9694 MEMB     66       POPC     H9Y      HAL2     0.900000E-01   1.00800           0
      9695 MEMB     66       POPC     C310     CTL2    -0.180000       12.0110           0
      9696 MEMB     66       POPC     H10X     HAL2     0.900000E-01   1.00800           0
      9697 MEMB     66       POPC     H10Y     HAL2     0.900000E-01   1.00800           0
      9698 MEMB     66       POPC     C311     CTL2    -0.180000       12.0110           0
      9699 MEMB     66       POPC     H11X     HAL2     0.900000E-01   1.00800           0
      9700 MEMB     66       POPC     H11Y     HAL2     0.900000E-01   1.00800           0
      9701 MEMB     66       POPC     C312     CTL2    -0.180000       12.0110           0
      9702 MEMB     66       POPC     H12X     HAL2     0.900000E-01   1.00800           0
      9703 MEMB     66       POPC     H12Y     HAL2     0.900000E-01   1.00800           0
      9704 MEMB     66       POPC     C313     CTL2    -0.180000       12.0110           0
      9705 MEMB     66       POPC     H13X     HAL2     0.900000E-01   1.00800           0
      9706 MEMB     66       POPC     H13Y     HAL2     0.900000E-01   1.00800           0
      9707 MEMB     66       POPC     C314     CTL2    -0.180000       12.0110           0
      9708 MEMB     66       POPC     H14X     HAL2     0.900000E-01   1.00800           0
      9709 MEMB     66       POPC     H14Y     HAL2     0.900000E-01   1.00800           0
      9710 MEMB     66       POPC     C315     CTL2    -0.180000       12.0110           0
      9711 MEMB     66       POPC     H15X     HAL2     0.900000E-01   1.00800           0
      9712 MEMB     66       POPC     H15Y     HAL2     0.900000E-01   1.00800           0
      9713 MEMB     66       POPC     C316     CTL3    -0.270000       12.0110           0
      9714 MEMB     66       POPC     H16X     HAL3     0.900000E-01   1.00800           0
      9715 MEMB     66       POPC     H16Y     HAL3     0.900000E-01   1.00800           0
      9716 MEMB     66       POPC     H16Z     HAL3     0.900000E-01   1.00800           0
      9717 MEMB     67       POPC     N        NTL     -0.600000       14.0070           0
      9718 MEMB     67       POPC     C12      CTL2    -0.100000       12.0110           0
      9719 MEMB     67       POPC     H12A     HL       0.250000       1.00800           0
      9720 MEMB     67       POPC     H12B     HL       0.250000       1.00800           0
      9721 MEMB     67       POPC     C13      CTL5    -0.350000       12.0110           0
      9722 MEMB     67       POPC     H13A     HL       0.250000       1.00800           0
      9723 MEMB     67       POPC     H13B     HL       0.250000       1.00800           0
      9724 MEMB     67       POPC     H13C     HL       0.250000       1.00800           0
      9725 MEMB     67       POPC     C14      CTL5    -0.350000       12.0110           0
      9726 MEMB     67       POPC     H14A     HL       0.250000       1.00800           0
      9727 MEMB     67       POPC     H14B     HL       0.250000       1.00800           0
      9728 MEMB     67       POPC     H14C     HL       0.250000       1.00800           0
      9729 MEMB     67       POPC     C15      CTL5    -0.350000       12.0110           0
      9730 MEMB     67       POPC     H15A     HL       0.250000       1.00800           0
      9731 MEMB     67       POPC     H15B     HL       0.250000       1.00800           0
      9732 MEMB     67       POPC     H15C     HL       0.250000       1.00800           0
      9733 MEMB     67       POPC     C11      CTL2    -0.800000E-01   12.0110           0
      9734 MEMB     67       POPC     H11A     HAL2     0.900000E-01   1.00800           0
      9735 MEMB     67       POPC     H11B     HAL2     0.900000E-01   1.00800           0
      9736 MEMB     67       POPC     P        PL        1.50000       30.9740           0
      9737 MEMB     67       POPC     O13      O2L     -0.780000       15.9994           0
      9738 MEMB     67       POPC     O14      O2L     -0.780000       15.9994           0
      9739 MEMB     67       POPC     O12      OSLP    -0.570000       15.9994           0
      9740 MEMB     67       POPC     O11      OSLP    -0.570000       15.9994           0
      9741 MEMB     67       POPC     C1       CTL2    -0.800000E-01   12.0110           0
      9742 MEMB     67       POPC     HA       HAL2     0.900000E-01   1.00800           0
      9743 MEMB     67       POPC     HB       HAL2     0.900000E-01   1.00800           0
      9744 MEMB     67       POPC     C2       CTL1     0.170000       12.0110           0
      9745 MEMB     67       POPC     HS       HAL1     0.900000E-01   1.00800           0
      9746 MEMB     67       POPC     O21      OSL     -0.490000       15.9994           0
      9747 MEMB     67       POPC     C21      CL       0.900000       12.0110           0
      9748 MEMB     67       POPC     O22      OBL     -0.630000       15.9994           0
      9749 MEMB     67       POPC     C22      CTL2    -0.220000       12.0110           0
      9750 MEMB     67       POPC     H2R      HAL2     0.900000E-01   1.00800           0
      9751 MEMB     67       POPC     H2S      HAL2     0.900000E-01   1.00800           0
      9752 MEMB     67       POPC     C3       CTL2     0.800000E-01   12.0110           0
      9753 MEMB     67       POPC     HX       HAL2     0.900000E-01   1.00800           0
      9754 MEMB     67       POPC     HY       HAL2     0.900000E-01   1.00800           0
      9755 MEMB     67       POPC     O31      OSL     -0.490000       15.9994           0
      9756 MEMB     67       POPC     C31      CL       0.900000       12.0110           0
      9757 MEMB     67       POPC     O32      OBL     -0.630000       15.9994           0
      9758 MEMB     67       POPC     C32      CTL2    -0.220000       12.0110           0
      9759 MEMB     67       POPC     H2X      HAL2     0.900000E-01   1.00800           0
      9760 MEMB     67       POPC     H2Y      HAL2     0.900000E-01   1.00800           0
      9761 MEMB     67       POPC     C23      CTL2    -0.180000       12.0110           0
      9762 MEMB     67       POPC     H3R      HAL2     0.900000E-01   1.00800           0
      9763 MEMB     67       POPC     H3S      HAL2     0.900000E-01   1.00800           0
      9764 MEMB     67       POPC     C24      CTL2    -0.180000       12.0110           0
      9765 MEMB     67       POPC     H4R      HAL2     0.900000E-01   1.00800           0
      9766 MEMB     67       POPC     H4S      HAL2     0.900000E-01   1.00800           0
      9767 MEMB     67       POPC     C25      CTL2    -0.180000       12.0110           0
      9768 MEMB     67       POPC     H5R      HAL2     0.900000E-01   1.00800           0
      9769 MEMB     67       POPC     H5S      HAL2     0.900000E-01   1.00800           0
      9770 MEMB     67       POPC     C26      CTL2    -0.180000       12.0110           0
      9771 MEMB     67       POPC     H6R      HAL2     0.900000E-01   1.00800           0
      9772 MEMB     67       POPC     H6S      HAL2     0.900000E-01   1.00800           0
      9773 MEMB     67       POPC     C27      CTL2    -0.180000       12.0110           0
      9774 MEMB     67       POPC     H7R      HAL2     0.900000E-01   1.00800           0
      9775 MEMB     67       POPC     H7S      HAL2     0.900000E-01   1.00800           0
      9776 MEMB     67       POPC     C28      CTL2    -0.180000       12.0110           0
      9777 MEMB     67       POPC     H8R      HAL2     0.900000E-01   1.00800           0
      9778 MEMB     67       POPC     H8S      HAL2     0.900000E-01   1.00800           0
      9779 MEMB     67       POPC     C29      CEL1    -0.150000       12.0110           0
      9780 MEMB     67       POPC     H91      HEL1     0.150000       1.00800           0
      9781 MEMB     67       POPC     C210     CEL1    -0.150000       12.0110           0
      9782 MEMB     67       POPC     H101     HEL1     0.150000       1.00800           0
      9783 MEMB     67       POPC     C211     CTL2    -0.180000       12.0110           0
      9784 MEMB     67       POPC     H11R     HAL2     0.900000E-01   1.00800           0
      9785 MEMB     67       POPC     H11S     HAL2     0.900000E-01   1.00800           0
      9786 MEMB     67       POPC     C212     CTL2    -0.180000       12.0110           0
      9787 MEMB     67       POPC     H12R     HAL2     0.900000E-01   1.00800           0
      9788 MEMB     67       POPC     H12S     HAL2     0.900000E-01   1.00800           0
      9789 MEMB     67       POPC     C213     CTL2    -0.180000       12.0110           0
      9790 MEMB     67       POPC     H13R     HAL2     0.900000E-01   1.00800           0
      9791 MEMB     67       POPC     H13S     HAL2     0.900000E-01   1.00800           0
      9792 MEMB     67       POPC     C214     CTL2    -0.180000       12.0110           0
      9793 MEMB     67       POPC     H14R     HAL2     0.900000E-01   1.00800           0
      9794 MEMB     67       POPC     H14S     HAL2     0.900000E-01   1.00800           0
      9795 MEMB     67       POPC     C215     CTL2    -0.180000       12.0110           0
      9796 MEMB     67       POPC     H15R     HAL2     0.900000E-01   1.00800           0
      9797 MEMB     67       POPC     H15S     HAL2     0.900000E-01   1.00800           0
      9798 MEMB     67       POPC     C216     CTL2    -0.180000       12.0110           0
      9799 MEMB     67       POPC     H16R     HAL2     0.900000E-01   1.00800           0
      9800 MEMB     67       POPC     H16S     HAL2     0.900000E-01   1.00800           0
      9801 MEMB     67       POPC     C217     CTL2    -0.180000       12.0110           0
      9802 MEMB     67       POPC     H17R     HAL2     0.900000E-01   1.00800           0
      9803 MEMB     67       POPC     H17S     HAL2     0.900000E-01   1.00800           0
      9804 MEMB     67       POPC     C218     CTL3    -0.270000       12.0110           0
      9805 MEMB     67       POPC     H18R     HAL3     0.900000E-01   1.00800           0
      9806 MEMB     67       POPC     H18S     HAL3     0.900000E-01   1.00800           0
      9807 MEMB     67       POPC     H18T     HAL3     0.900000E-01   1.00800           0
      9808 MEMB     67       POPC     C33      CTL2    -0.180000       12.0110           0
      9809 MEMB     67       POPC     H3X      HAL2     0.900000E-01   1.00800           0
      9810 MEMB     67       POPC     H3Y      HAL2     0.900000E-01   1.00800           0
      9811 MEMB     67       POPC     C34      CTL2    -0.180000       12.0110           0
      9812 MEMB     67       POPC     H4X      HAL2     0.900000E-01   1.00800           0
      9813 MEMB     67       POPC     H4Y      HAL2     0.900000E-01   1.00800           0
      9814 MEMB     67       POPC     C35      CTL2    -0.180000       12.0110           0
      9815 MEMB     67       POPC     H5X      HAL2     0.900000E-01   1.00800           0
      9816 MEMB     67       POPC     H5Y      HAL2     0.900000E-01   1.00800           0
      9817 MEMB     67       POPC     C36      CTL2    -0.180000       12.0110           0
      9818 MEMB     67       POPC     H6X      HAL2     0.900000E-01   1.00800           0
      9819 MEMB     67       POPC     H6Y      HAL2     0.900000E-01   1.00800           0
      9820 MEMB     67       POPC     C37      CTL2    -0.180000       12.0110           0
      9821 MEMB     67       POPC     H7X      HAL2     0.900000E-01   1.00800           0
      9822 MEMB     67       POPC     H7Y      HAL2     0.900000E-01   1.00800           0
      9823 MEMB     67       POPC     C38      CTL2    -0.180000       12.0110           0
      9824 MEMB     67       POPC     H8X      HAL2     0.900000E-01   1.00800           0
      9825 MEMB     67       POPC     H8Y      HAL2     0.900000E-01   1.00800           0
      9826 MEMB     67       POPC     C39      CTL2    -0.180000       12.0110           0
      9827 MEMB     67       POPC     H9X      HAL2     0.900000E-01   1.00800           0
      9828 MEMB     67       POPC     H9Y      HAL2     0.900000E-01   1.00800           0
      9829 MEMB     67       POPC     C310     CTL2    -0.180000       12.0110           0
      9830 MEMB     67       POPC     H10X     HAL2     0.900000E-01   1.00800           0
      9831 MEMB     67       POPC     H10Y     HAL2     0.900000E-01   1.00800           0
      9832 MEMB     67       POPC     C311     CTL2    -0.180000       12.0110           0
      9833 MEMB     67       POPC     H11X     HAL2     0.900000E-01   1.00800           0
      9834 MEMB     67       POPC     H11Y     HAL2     0.900000E-01   1.00800           0
      9835 MEMB     67       POPC     C312     CTL2    -0.180000       12.0110           0
      9836 MEMB     67       POPC     H12X     HAL2     0.900000E-01   1.00800           0
      9837 MEMB     67       POPC     H12Y     HAL2     0.900000E-01   1.00800           0
      9838 MEMB     67       POPC     C313     CTL2    -0.180000       12.0110           0
      9839 MEMB     67       POPC     H13X     HAL2     0.900000E-01   1.00800           0
      9840 MEMB     67       POPC     H13Y     HAL2     0.900000E-01   1.00800           0
      9841 MEMB     67       POPC     C314     CTL2    -0.180000       12.0110           0
      9842 MEMB     67       POPC     H14X     HAL2     0.900000E-01   1.00800           0
      9843 MEMB     67       POPC     H14Y     HAL2     0.900000E-01   1.00800           0
      9844 MEMB     67       POPC     C315     CTL2    -0.180000       12.0110           0
      9845 MEMB     67       POPC     H15X     HAL2     0.900000E-01   1.00800           0
      9846 MEMB     67       POPC     H15Y     HAL2     0.900000E-01   1.00800           0
      9847 MEMB     67       POPC     C316     CTL3    -0.270000       12.0110           0
      9848 MEMB     67       POPC     H16X     HAL3     0.900000E-01   1.00800           0
      9849 MEMB     67       POPC     H16Y     HAL3     0.900000E-01   1.00800           0
      9850 MEMB     67       POPC     H16Z     HAL3     0.900000E-01   1.00800           0
      9851 MEMB     68       POPC     N        NTL     -0.600000       14.0070           0
      9852 MEMB     68       POPC     C12      CTL2    -0.100000       12.0110           0
      9853 MEMB     68       POPC     H12A     HL       0.250000       1.00800           0
      9854 MEMB     68       POPC     H12B     HL       0.250000       1.00800           0
      9855 MEMB     68       POPC     C13      CTL5    -0.350000       12.0110           0
      9856 MEMB     68       POPC     H13A     HL       0.250000       1.00800           0
      9857 MEMB     68       POPC     H13B     HL       0.250000       1.00800           0
      9858 MEMB     68       POPC     H13C     HL       0.250000       1.00800           0
      9859 MEMB     68       POPC     C14      CTL5    -0.350000       12.0110           0
      9860 MEMB     68       POPC     H14A     HL       0.250000       1.00800           0
      9861 MEMB     68       POPC     H14B     HL       0.250000       1.00800           0
      9862 MEMB     68       POPC     H14C     HL       0.250000       1.00800           0
      9863 MEMB     68       POPC     C15      CTL5    -0.350000       12.0110           0
      9864 MEMB     68       POPC     H15A     HL       0.250000       1.00800           0
      9865 MEMB     68       POPC     H15B     HL       0.250000       1.00800           0
      9866 MEMB     68       POPC     H15C     HL       0.250000       1.00800           0
      9867 MEMB     68       POPC     C11      CTL2    -0.800000E-01   12.0110           0
      9868 MEMB     68       POPC     H11A     HAL2     0.900000E-01   1.00800           0
      9869 MEMB     68       POPC     H11B     HAL2     0.900000E-01   1.00800           0
      9870 MEMB     68       POPC     P        PL        1.50000       30.9740           0
      9871 MEMB     68       POPC     O13      O2L     -0.780000       15.9994           0
      9872 MEMB     68       POPC     O14      O2L     -0.780000       15.9994           0
      9873 MEMB     68       POPC     O12      OSLP    -0.570000       15.9994           0
      9874 MEMB     68       POPC     O11      OSLP    -0.570000       15.9994           0
      9875 MEMB     68       POPC     C1       CTL2    -0.800000E-01   12.0110           0
      9876 MEMB     68       POPC     HA       HAL2     0.900000E-01   1.00800           0
      9877 MEMB     68       POPC     HB       HAL2     0.900000E-01   1.00800           0
      9878 MEMB     68       POPC     C2       CTL1     0.170000       12.0110           0
      9879 MEMB     68       POPC     HS       HAL1     0.900000E-01   1.00800           0
      9880 MEMB     68       POPC     O21      OSL     -0.490000       15.9994           0
      9881 MEMB     68       POPC     C21      CL       0.900000       12.0110           0
      9882 MEMB     68       POPC     O22      OBL     -0.630000       15.9994           0
      9883 MEMB     68       POPC     C22      CTL2    -0.220000       12.0110           0
      9884 MEMB     68       POPC     H2R      HAL2     0.900000E-01   1.00800           0
      9885 MEMB     68       POPC     H2S      HAL2     0.900000E-01   1.00800           0
      9886 MEMB     68       POPC     C3       CTL2     0.800000E-01   12.0110           0
      9887 MEMB     68       POPC     HX       HAL2     0.900000E-01   1.00800           0
      9888 MEMB     68       POPC     HY       HAL2     0.900000E-01   1.00800           0
      9889 MEMB     68       POPC     O31      OSL     -0.490000       15.9994           0
      9890 MEMB     68       POPC     C31      CL       0.900000       12.0110           0
      9891 MEMB     68       POPC     O32      OBL     -0.630000       15.9994           0
      9892 MEMB     68       POPC     C32      CTL2    -0.220000       12.0110           0
      9893 MEMB     68       POPC     H2X      HAL2     0.900000E-01   1.00800           0
      9894 MEMB     68       POPC     H2Y      HAL2     0.900000E-01   1.00800           0
      9895 MEMB     68       POPC     C23      CTL2    -0.180000       12.0110           0
      9896 MEMB     68       POPC     H3R      HAL2     0.900000E-01   1.00800           0
      9897 MEMB     68       POPC     H3S      HAL2     0.900000E-01   1.00800           0
      9898 MEMB     68       POPC     C24      CTL2    -0.180000       12.0110           0
      9899 MEMB     68       POPC     H4R      HAL2     0.900000E-01   1.00800           0
      9900 MEMB     68       POPC     H4S      HAL2     0.900000E-01   1.00800           0
      9901 MEMB     68       POPC     C25      CTL2    -0.180000       12.0110           0
      9902 MEMB     68       POPC     H5R      HAL2     0.900000E-01   1.00800           0
      9903 MEMB     68       POPC     H5S      HAL2     0.900000E-01   1.00800           0
      9904 MEMB     68       POPC     C26      CTL2    -0.180000       12.0110           0
      9905 MEMB     68       POPC     H6R      HAL2     0.900000E-01   1.00800           0
      9906 MEMB     68       POPC     H6S      HAL2     0.900000E-01   1.00800           0
      9907 MEMB     68       POPC     C27      CTL2    -0.180000       12.0110           0
      9908 MEMB     68       POPC     H7R      HAL2     0.900000E-01   1.00800           0
      9909 MEMB     68       POPC     H7S      HAL2     0.900000E-01   1.00800           0
      9910 MEMB     68       POPC     C28      CTL2    -0.180000       12.0110           0
      9911 MEMB     68       POPC     H8R      HAL2     0.900000E-01   1.00800           0
      9912 MEMB     68       POPC     H8S      HAL2     0.900000E-01   1.00800           0
      9913 MEMB     68       POPC     C29      CEL1    -0.150000       12.0110           0
      9914 MEMB     68       POPC     H91      HEL1     0.150000       1.00800           0
      9915 MEMB     68       POPC     C210     CEL1    -0.150000       12.0110           0
      9916 MEMB     68       POPC     H101     HEL1     0.150000       1.00800           0
      9917 MEMB     68       POPC     C211     CTL2    -0.180000       12.0110           0
      9918 MEMB     68       POPC     H11R     HAL2     0.900000E-01   1.00800           0
      9919 MEMB     68       POPC     H11S     HAL2     0.900000E-01   1.00800           0
      9920 MEMB     68       POPC     C212     CTL2    -0.180000       12.0110           0
      9921 MEMB     68       POPC     H12R     HAL2     0.900000E-01   1.00800           0
      9922 MEMB     68       POPC     H12S     HAL2     0.900000E-01   1.00800           0
      9923 MEMB     68       POPC     C213     CTL2    -0.180000       12.0110           0
      9924 MEMB     68       POPC     H13R     HAL2     0.900000E-01   1.00800           0
      9925 MEMB     68       POPC     H13S     HAL2     0.900000E-01   1.00800           0
      9926 MEMB     68       POPC     C214     CTL2    -0.180000       12.0110           0
      9927 MEMB     68       POPC     H14R     HAL2     0.900000E-01   1.00800           0
      9928 MEMB     68       POPC     H14S     HAL2     0.900000E-01   1.00800           0
      9929 MEMB     68       POPC     C215     CTL2    -0.180000       12.0110           0
      9930 MEMB     68       POPC     H15R     HAL2     0.900000E-01   1.00800           0
      9931 MEMB     68       POPC     H15S     HAL2     0.900000E-01   1.00800           0
      9932 MEMB     68       POPC     C216     CTL2    -0.180000       12.0110           0
      9933 MEMB     68       POPC     H16R     HAL2     0.900000E-01   1.00800           0
      9934 MEMB     68       POPC     H16S     HAL2     0.900000E-01   1.00800           0
      9935 MEMB     68       POPC     C217     CTL2    -0.180000       12.0110           0
      9936 MEMB     68       POPC     H17R     HAL2     0.900000E-01   1.00800           0
      9937 MEMB     68       POPC     H17S     HAL2     0.900000E-01   1.00800           0
      9938 MEMB     68       POPC     C218     CTL3    -0.270000       12.0110           0
      9939 MEMB     68       POPC     H18R     HAL3     0.900000E-01   1.00800           0
      9940 MEMB     68       POPC     H18S     HAL3     0.900000E-01   1.00800           0
      9941 MEMB     68       POPC     H18T     HAL3     0.900000E-01   1.00800           0
      9942 MEMB     68       POPC     C33      CTL2    -0.180000       12.0110           0
      9943 MEMB     68       POPC     H3X      HAL2     0.900000E-01   1.00800           0
      9944 MEMB     68       POPC     H3Y      HAL2     0.900000E-01   1.00800           0
      9945 MEMB     68       POPC     C34      CTL2    -0.180000       12.0110           0
      9946 MEMB     68       POPC     H4X      HAL2     0.900000E-01   1.00800           0
      9947 MEMB     68       POPC     H4Y      HAL2     0.900000E-01   1.00800           0
      9948 MEMB     68       POPC     C35      CTL2    -0.180000       12.0110           0
      9949 MEMB     68       POPC     H5X      HAL2     0.900000E-01   1.00800           0
      9950 MEMB     68       POPC     H5Y      HAL2     0.900000E-01   1.00800           0
      9951 MEMB     68       POPC     C36      CTL2    -0.180000       12.0110           0
      9952 MEMB     68       POPC     H6X      HAL2     0.900000E-01   1.00800           0
      9953 MEMB     68       POPC     H6Y      HAL2     0.900000E-01   1.00800           0
      9954 MEMB     68       POPC     C37      CTL2    -0.180000       12.0110           0
      9955 MEMB     68       POPC     H7X      HAL2     0.900000E-01   1.00800           0
      9956 MEMB     68       POPC     H7Y      HAL2     0.900000E-01   1.00800           0
      9957 MEMB     68       POPC     C38      CTL2    -0.180000       12.0110           0
      9958 MEMB     68       POPC     H8X      HAL2     0.900000E-01   1.00800           0
      9959 MEMB     68       POPC     H8Y      HAL2     0.900000E-01   1.00800           0
      9960 MEMB     68       POPC     C39      CTL2    -0.180000       12.0110           0
      9961 MEMB     68       POPC     H9X      HAL2     0.900000E-01   1.00800           0
      9962 MEMB     68       POPC     H9Y      HAL2     0.900000E-01   1.00800           0
      9963 MEMB     68       POPC     C310     CTL2    -0.180000       12.0110           0
      9964 MEMB     68       POPC     H10X     HAL2     0.900000E-01   1.00800           0
      9965 MEMB     68       POPC     H10Y     HAL2     0.900000E-01   1.00800           0
      9966 MEMB     68       POPC     C311     CTL2    -0.180000       12.0110           0
      9967 MEMB     68       POPC     H11X     HAL2     0.900000E-01   1.00800           0
      9968 MEMB     68       POPC     H11Y     HAL2     0.900000E-01   1.00800           0
      9969 MEMB     68       POPC     C312     CTL2    -0.180000       12.0110           0
      9970 MEMB     68       POPC     H12X     HAL2     0.900000E-01   1.00800           0
      9971 MEMB     68       POPC     H12Y     HAL2     0.900000E-01   1.00800           0
      9972 MEMB     68       POPC     C313     CTL2    -0.180000       12.0110           0
      9973 MEMB     68       POPC     H13X     HAL2     0.900000E-01   1.00800           0
      9974 MEMB     68       POPC     H13Y     HAL2     0.900000E-01   1.00800           0
      9975 MEMB     68       POPC     C314     CTL2    -0.180000       12.0110           0
      9976 MEMB     68       POPC     H14X     HAL2     0.900000E-01   1.00800           0
      9977 MEMB     68       POPC     H14Y     HAL2     0.900000E-01   1.00800           0
      9978 MEMB     68       POPC     C315     CTL2    -0.180000       12.0110           0
      9979 MEMB     68       POPC     H15X     HAL2     0.900000E-01   1.00800           0
      9980 MEMB     68       POPC     H15Y     HAL2     0.900000E-01   1.00800           0
      9981 MEMB     68       POPC     C316     CTL3    -0.270000       12.0110           0
      9982 MEMB     68       POPC     H16X     HAL3     0.900000E-01   1.00800           0
      9983 MEMB     68       POPC     H16Y     HAL3     0.900000E-01   1.00800           0
      9984 MEMB     68       POPC     H16Z     HAL3     0.900000E-01   1.00800           0
      9985 MEMB     69       POPC     N        NTL     -0.600000       14.0070           0
      9986 MEMB     69       POPC     C12      CTL2    -0.100000       12.0110           0
      9987 MEMB     69       POPC     H12A     HL       0.250000       1.00800           0
      9988 MEMB     69       POPC     H12B     HL       0.250000       1.00800           0
      9989 MEMB     69       POPC     C13      CTL5    -0.350000       12.0110           0
      9990 MEMB     69       POPC     H13A     HL       0.250000       1.00800           0
      9991 MEMB     69       POPC     H13B     HL       0.250000       1.00800           0
      9992 MEMB     69       POPC     H13C     HL       0.250000       1.00800           0
      9993 MEMB     69       POPC     C14      CTL5    -0.350000       12.0110           0
      9994 MEMB     69       POPC     H14A     HL       0.250000       1.00800           0
      9995 MEMB     69       POPC     H14B     HL       0.250000       1.00800           0
      9996 MEMB     69       POPC     H14C     HL       0.250000       1.00800           0
      9997 MEMB     69       POPC     C15      CTL5    -0.350000       12.0110           0
      9998 MEMB     69       POPC     H15A     HL       0.250000       1.00800           0
      9999 MEMB     69       POPC     H15B     HL       0.250000       1.00800           0
     10000 MEMB     69       POPC     H15C     HL       0.250000       1.00800           0
     10001 MEMB     69       POPC     C11      CTL2    -0.800000E-01   12.0110           0
     10002 MEMB     69       POPC     H11A     HAL2     0.900000E-01   1.00800           0
     10003 MEMB     69       POPC     H11B     HAL2     0.900000E-01   1.00800           0
     10004 MEMB     69       POPC     P        PL        1.50000       30.9740           0
     10005 MEMB     69       POPC     O13      O2L     -0.780000       15.9994           0
     10006 MEMB     69       POPC     O14      O2L     -0.780000       15.9994           0
     10007 MEMB     69       POPC     O12      OSLP    -0.570000       15.9994           0
     10008 MEMB     69       POPC     O11      OSLP    -0.570000       15.9994           0
     10009 MEMB     69       POPC     C1       CTL2    -0.800000E-01   12.0110           0
     10010 MEMB     69       POPC     HA       HAL2     0.900000E-01   1.00800           0
     10011 MEMB     69       POPC     HB       HAL2     0.900000E-01   1.00800           0
     10012 MEMB     69       POPC     C2       CTL1     0.170000       12.0110           0
     10013 MEMB     69       POPC     HS       HAL1     0.900000E-01   1.00800           0
     10014 MEMB     69       POPC     O21      OSL     -0.490000       15.9994           0
     10015 MEMB     69       POPC     C21      CL       0.900000       12.0110           0
     10016 MEMB     69       POPC     O22      OBL     -0.630000       15.9994           0
     10017 MEMB     69       POPC     C22      CTL2    -0.220000       12.0110           0
     10018 MEMB     69       POPC     H2R      HAL2     0.900000E-01   1.00800           0
     10019 MEMB     69       POPC     H2S      HAL2     0.900000E-01   1.00800           0
     10020 MEMB     69       POPC     C3       CTL2     0.800000E-01   12.0110           0
     10021 MEMB     69       POPC     HX       HAL2     0.900000E-01   1.00800           0
     10022 MEMB     69       POPC     HY       HAL2     0.900000E-01   1.00800           0
     10023 MEMB     69       POPC     O31      OSL     -0.490000       15.9994           0
     10024 MEMB     69       POPC     C31      CL       0.900000       12.0110           0
     10025 MEMB     69       POPC     O32      OBL     -0.630000       15.9994           0
     10026 MEMB     69       POPC     C32      CTL2    -0.220000       12.0110           0
     10027 MEMB     69       POPC     H2X      HAL2     0.900000E-01   1.00800           0
     10028 MEMB     69       POPC     H2Y      HAL2     0.900000E-01   1.00800           0
     10029 MEMB     69       POPC     C23      CTL2    -0.180000       12.0110           0
     10030 MEMB     69       POPC     H3R      HAL2     0.900000E-01   1.00800           0
     10031 MEMB     69       POPC     H3S      HAL2     0.900000E-01   1.00800           0
     10032 MEMB     69       POPC     C24      CTL2    -0.180000       12.0110           0
     10033 MEMB     69       POPC     H4R      HAL2     0.900000E-01   1.00800           0
     10034 MEMB     69       POPC     H4S      HAL2     0.900000E-01   1.00800           0
     10035 MEMB     69       POPC     C25      CTL2    -0.180000       12.0110           0
     10036 MEMB     69       POPC     H5R      HAL2     0.900000E-01   1.00800           0
     10037 MEMB     69       POPC     H5S      HAL2     0.900000E-01   1.00800           0
     10038 MEMB     69       POPC     C26      CTL2    -0.180000       12.0110           0
     10039 MEMB     69       POPC     H6R      HAL2     0.900000E-01   1.00800           0
     10040 MEMB     69       POPC     H6S      HAL2     0.900000E-01   1.00800           0
     10041 MEMB     69       POPC     C27      CTL2    -0.180000       12.0110           0
     10042 MEMB     69       POPC     H7R      HAL2     0.900000E-01   1.00800           0
     10043 MEMB     69       POPC     H7S      HAL2     0.900000E-01   1.00800           0
     10044 MEMB     69       POPC     C28      CTL2    -0.180000       12.0110           0
     10045 MEMB     69       POPC     H8R      HAL2     0.900000E-01   1.00800           0
     10046 MEMB     69       POPC     H8S      HAL2     0.900000E-01   1.00800           0
     10047 MEMB     69       POPC     C29      CEL1    -0.150000       12.0110           0
     10048 MEMB     69       POPC     H91      HEL1     0.150000       1.00800           0
     10049 MEMB     69       POPC     C210     CEL1    -0.150000       12.0110           0
     10050 MEMB     69       POPC     H101     HEL1     0.150000       1.00800           0
     10051 MEMB     69       POPC     C211     CTL2    -0.180000       12.0110           0
     10052 MEMB     69       POPC     H11R     HAL2     0.900000E-01   1.00800           0
     10053 MEMB     69       POPC     H11S     HAL2     0.900000E-01   1.00800           0
     10054 MEMB     69       POPC     C212     CTL2    -0.180000       12.0110           0
     10055 MEMB     69       POPC     H12R     HAL2     0.900000E-01   1.00800           0
     10056 MEMB     69       POPC     H12S     HAL2     0.900000E-01   1.00800           0
     10057 MEMB     69       POPC     C213     CTL2    -0.180000       12.0110           0
     10058 MEMB     69       POPC     H13R     HAL2     0.900000E-01   1.00800           0
     10059 MEMB     69       POPC     H13S     HAL2     0.900000E-01   1.00800           0
     10060 MEMB     69       POPC     C214     CTL2    -0.180000       12.0110           0
     10061 MEMB     69       POPC     H14R     HAL2     0.900000E-01   1.00800           0
     10062 MEMB     69       POPC     H14S     HAL2     0.900000E-01   1.00800           0
     10063 MEMB     69       POPC     C215     CTL2    -0.180000       12.0110           0
     10064 MEMB     69       POPC     H15R     HAL2     0.900000E-01   1.00800           0
     10065 MEMB     69       POPC     H15S     HAL2     0.900000E-01   1.00800           0
     10066 MEMB     69       POPC     C216     CTL2    -0.180000       12.0110           0
     10067 MEMB     69       POPC     H16R     HAL2     0.900000E-01   1.00800           0
     10068 MEMB     69       POPC     H16S     HAL2     0.900000E-01   1.00800           0
     10069 MEMB     69       POPC     C217     CTL2    -0.180000       12.0110           0
     10070 MEMB     69       POPC     H17R     HAL2     0.900000E-01   1.00800           0
     10071 MEMB     69       POPC     H17S     HAL2     0.900000E-01   1.00800           0
     10072 MEMB     69       POPC     C218     CTL3    -0.270000       12.0110           0
     10073 MEMB     69       POPC     H18R     HAL3     0.900000E-01   1.00800           0
     10074 MEMB     69       POPC     H18S     HAL3     0.900000E-01   1.00800           0
     10075 MEMB     69       POPC     H18T     HAL3     0.900000E-01   1.00800           0
     10076 MEMB     69       POPC     C33      CTL2    -0.180000       12.0110           0
     10077 MEMB     69       POPC     H3X      HAL2     0.900000E-01   1.00800           0
     10078 MEMB     69       POPC     H3Y      HAL2     0.900000E-01   1.00800           0
     10079 MEMB     69       POPC     C34      CTL2    -0.180000       12.0110           0
     10080 MEMB     69       POPC     H4X      HAL2     0.900000E-01   1.00800           0
     10081 MEMB     69       POPC     H4Y      HAL2     0.900000E-01   1.00800           0
     10082 MEMB     69       POPC     C35      CTL2    -0.180000       12.0110           0
     10083 MEMB     69       POPC     H5X      HAL2     0.900000E-01   1.00800           0
     10084 MEMB     69       POPC     H5Y      HAL2     0.900000E-01   1.00800           0
     10085 MEMB     69       POPC     C36      CTL2    -0.180000       12.0110           0
     10086 MEMB     69       POPC     H6X      HAL2     0.900000E-01   1.00800           0
     10087 MEMB     69       POPC     H6Y      HAL2     0.900000E-01   1.00800           0
     10088 MEMB     69       POPC     C37      CTL2    -0.180000       12.0110           0
     10089 MEMB     69       POPC     H7X      HAL2     0.900000E-01   1.00800           0
     10090 MEMB     69       POPC     H7Y      HAL2     0.900000E-01   1.00800           0
     10091 MEMB     69       POPC     C38      CTL2    -0.180000       12.0110           0
     10092 MEMB     69       POPC     H8X      HAL2     0.900000E-01   1.00800           0
     10093 MEMB     69       POPC     H8Y      HAL2     0.900000E-01   1.00800           0
     10094 MEMB     69       POPC     C39      CTL2    -0.180000       12.0110           0
     10095 MEMB     69       POPC     H9X      HAL2     0.900000E-01   1.00800           0
     10096 MEMB     69       POPC     H9Y      HAL2     0.900000E-01   1.00800           0
     10097 MEMB     69       POPC     C310     CTL2    -0.180000       12.0110           0
     10098 MEMB     69       POPC     H10X     HAL2     0.900000E-01   1.00800           0
     10099 MEMB     69       POPC     H10Y     HAL2     0.900000E-01   1.00800           0
     10100 MEMB     69       POPC     C311     CTL2    -0.180000       12.0110           0
     10101 MEMB     69       POPC     H11X     HAL2     0.900000E-01   1.00800           0
     10102 MEMB     69       POPC     H11Y     HAL2     0.900000E-01   1.00800           0
     10103 MEMB     69       POPC     C312     CTL2    -0.180000       12.0110           0
     10104 MEMB     69       POPC     H12X     HAL2     0.900000E-01   1.00800           0
     10105 MEMB     69       POPC     H12Y     HAL2     0.900000E-01   1.00800           0
     10106 MEMB     69       POPC     C313     CTL2    -0.180000       12.0110           0
     10107 MEMB     69       POPC     H13X     HAL2     0.900000E-01   1.00800           0
     10108 MEMB     69       POPC     H13Y     HAL2     0.900000E-01   1.00800           0
     10109 MEMB     69       POPC     C314     CTL2    -0.180000       12.0110           0
     10110 MEMB     69       POPC     H14X     HAL2     0.900000E-01   1.00800           0
     10111 MEMB     69       POPC     H14Y     HAL2     0.900000E-01   1.00800           0
     10112 MEMB     69       POPC     C315     CTL2    -0.180000       12.0110           0
     10113 MEMB     69       POPC     H15X     HAL2     0.900000E-01   1.00800           0
     10114 MEMB     69       POPC     H15Y     HAL2     0.900000E-01   1.00800           0
     10115 MEMB     69       POPC     C316     CTL3    -0.270000       12.0110           0
     10116 MEMB     69       POPC     H16X     HAL3     0.900000E-01   1.00800           0
     10117 MEMB     69       POPC     H16Y     HAL3     0.900000E-01   1.00800           0
     10118 MEMB     69       POPC     H16Z     HAL3     0.900000E-01   1.00800           0
     10119 MEMB     70       POPC     N        NTL     -0.600000       14.0070           0
     10120 MEMB     70       POPC     C12      CTL2    -0.100000       12.0110           0
     10121 MEMB     70       POPC     H12A     HL       0.250000       1.00800           0
     10122 MEMB     70       POPC     H12B     HL       0.250000       1.00800           0
     10123 MEMB     70       POPC     C13      CTL5    -0.350000       12.0110           0
     10124 MEMB     70       POPC     H13A     HL       0.250000       1.00800           0
     10125 MEMB     70       POPC     H13B     HL       0.250000       1.00800           0
     10126 MEMB     70       POPC     H13C     HL       0.250000       1.00800           0
     10127 MEMB     70       POPC     C14      CTL5    -0.350000       12.0110           0
     10128 MEMB     70       POPC     H14A     HL       0.250000       1.00800           0
     10129 MEMB     70       POPC     H14B     HL       0.250000       1.00800           0
     10130 MEMB     70       POPC     H14C     HL       0.250000       1.00800           0
     10131 MEMB     70       POPC     C15      CTL5    -0.350000       12.0110           0
     10132 MEMB     70       POPC     H15A     HL       0.250000       1.00800           0
     10133 MEMB     70       POPC     H15B     HL       0.250000       1.00800           0
     10134 MEMB     70       POPC     H15C     HL       0.250000       1.00800           0
     10135 MEMB     70       POPC     C11      CTL2    -0.800000E-01   12.0110           0
     10136 MEMB     70       POPC     H11A     HAL2     0.900000E-01   1.00800           0
     10137 MEMB     70       POPC     H11B     HAL2     0.900000E-01   1.00800           0
     10138 MEMB     70       POPC     P        PL        1.50000       30.9740           0
     10139 MEMB     70       POPC     O13      O2L     -0.780000       15.9994           0
     10140 MEMB     70       POPC     O14      O2L     -0.780000       15.9994           0
     10141 MEMB     70       POPC     O12      OSLP    -0.570000       15.9994           0
     10142 MEMB     70       POPC     O11      OSLP    -0.570000       15.9994           0
     10143 MEMB     70       POPC     C1       CTL2    -0.800000E-01   12.0110           0
     10144 MEMB     70       POPC     HA       HAL2     0.900000E-01   1.00800           0
     10145 MEMB     70       POPC     HB       HAL2     0.900000E-01   1.00800           0
     10146 MEMB     70       POPC     C2       CTL1     0.170000       12.0110           0
     10147 MEMB     70       POPC     HS       HAL1     0.900000E-01   1.00800           0
     10148 MEMB     70       POPC     O21      OSL     -0.490000       15.9994           0
     10149 MEMB     70       POPC     C21      CL       0.900000       12.0110           0
     10150 MEMB     70       POPC     O22      OBL     -0.630000       15.9994           0
     10151 MEMB     70       POPC     C22      CTL2    -0.220000       12.0110           0
     10152 MEMB     70       POPC     H2R      HAL2     0.900000E-01   1.00800           0
     10153 MEMB     70       POPC     H2S      HAL2     0.900000E-01   1.00800           0
     10154 MEMB     70       POPC     C3       CTL2     0.800000E-01   12.0110           0
     10155 MEMB     70       POPC     HX       HAL2     0.900000E-01   1.00800           0
     10156 MEMB     70       POPC     HY       HAL2     0.900000E-01   1.00800           0
     10157 MEMB     70       POPC     O31      OSL     -0.490000       15.9994           0
     10158 MEMB     70       POPC     C31      CL       0.900000       12.0110           0
     10159 MEMB     70       POPC     O32      OBL     -0.630000       15.9994           0
     10160 MEMB     70       POPC     C32      CTL2    -0.220000       12.0110           0
     10161 MEMB     70       POPC     H2X      HAL2     0.900000E-01   1.00800           0
     10162 MEMB     70       POPC     H2Y      HAL2     0.900000E-01   1.00800           0
     10163 MEMB     70       POPC     C23      CTL2    -0.180000       12.0110           0
     10164 MEMB     70       POPC     H3R      HAL2     0.900000E-01   1.00800           0
     10165 MEMB     70       POPC     H3S      HAL2     0.900000E-01   1.00800           0
     10166 MEMB     70       POPC     C24      CTL2    -0.180000       12.0110           0
     10167 MEMB     70       POPC     H4R      HAL2     0.900000E-01   1.00800           0
     10168 MEMB     70       POPC     H4S      HAL2     0.900000E-01   1.00800           0
     10169 MEMB     70       POPC     C25      CTL2    -0.180000       12.0110           0
     10170 MEMB     70       POPC     H5R      HAL2     0.900000E-01   1.00800           0
     10171 MEMB     70       POPC     H5S      HAL2     0.900000E-01   1.00800           0
     10172 MEMB     70       POPC     C26      CTL2    -0.180000       12.0110           0
     10173 MEMB     70       POPC     H6R      HAL2     0.900000E-01   1.00800           0
     10174 MEMB     70       POPC     H6S      HAL2     0.900000E-01   1.00800           0
     10175 MEMB     70       POPC     C27      CTL2    -0.180000       12.0110           0
     10176 MEMB     70       POPC     H7R      HAL2     0.900000E-01   1.00800           0
     10177 MEMB     70       POPC     H7S      HAL2     0.900000E-01   1.00800           0
     10178 MEMB     70       POPC     C28      CTL2    -0.180000       12.0110           0
     10179 MEMB     70       POPC     H8R      HAL2     0.900000E-01   1.00800           0
     10180 MEMB     70       POPC     H8S      HAL2     0.900000E-01   1.00800           0
     10181 MEMB     70       POPC     C29      CEL1    -0.150000       12.0110           0
     10182 MEMB     70       POPC     H91      HEL1     0.150000       1.00800           0
     10183 MEMB     70       POPC     C210     CEL1    -0.150000       12.0110           0
     10184 MEMB     70       POPC     H101     HEL1     0.150000       1.00800           0
     10185 MEMB     70       POPC     C211     CTL2    -0.180000       12.0110           0
     10186 MEMB     70       POPC     H11R     HAL2     0.900000E-01   1.00800           0
     10187 MEMB     70       POPC     H11S     HAL2     0.900000E-01   1.00800           0
     10188 MEMB     70       POPC     C212     CTL2    -0.180000       12.0110           0
     10189 MEMB     70       POPC     H12R     HAL2     0.900000E-01   1.00800           0
     10190 MEMB     70       POPC     H12S     HAL2     0.900000E-01   1.00800           0
     10191 MEMB     70       POPC     C213     CTL2    -0.180000       12.0110           0
     10192 MEMB     70       POPC     H13R     HAL2     0.900000E-01   1.00800           0
     10193 MEMB     70       POPC     H13S     HAL2     0.900000E-01   1.00800           0
     10194 MEMB     70       POPC     C214     CTL2    -0.180000       12.0110           0
     10195 MEMB     70       POPC     H14R     HAL2     0.900000E-01   1.00800           0
     10196 MEMB     70       POPC     H14S     HAL2     0.900000E-01   1.00800           0
     10197 MEMB     70       POPC     C215     CTL2    -0.180000       12.0110           0
     10198 MEMB     70       POPC     H15R     HAL2     0.900000E-01   1.00800           0
     10199 MEMB     70       POPC     H15S     HAL2     0.900000E-01   1.00800           0
     10200 MEMB     70       POPC     C216     CTL2    -0.180000       12.0110           0
     10201 MEMB     70       POPC     H16R     HAL2     0.900000E-01   1.00800           0
     10202 MEMB     70       POPC     H16S     HAL2     0.900000E-01   1.00800           0
     10203 MEMB     70       POPC     C217     CTL2    -0.180000       12.0110           0
     10204 MEMB     70       POPC     H17R     HAL2     0.900000E-01   1.00800           0
     10205 MEMB     70       POPC     H17S     HAL2     0.900000E-01   1.00800           0
     10206 MEMB     70       POPC     C218     CTL3    -0.270000       12.0110           0
     10207 MEMB     70       POPC     H18R     HAL3     0.900000E-01   1.00800           0
     10208 MEMB     70       POPC     H18S     HAL3     0.900000E-01   1.00800           0
     10209 MEMB     70       POPC     H18T     HAL3     0.900000E-01   1.00800           0
     10210 MEMB     70       POPC     C33      CTL2    -0.180000       12.0110           0
     10211 MEMB     70       POPC     H3X      HAL2     0.900000E-01   1.00800           0
     10212 MEMB     70       POPC     H3Y      HAL2     0.900000E-01   1.00800           0
     10213 MEMB     70       POPC     C34      CTL2    -0.180000       12.0110           0
     10214 MEMB     70       POPC     H4X      HAL2     0.900000E-01   1.00800           0
     10215 MEMB     70       POPC     H4Y      HAL2     0.900000E-01   1.00800           0
     10216 MEMB     70       POPC     C35      CTL2    -0.180000       12.0110           0
     10217 MEMB     70       POPC     H5X      HAL2     0.900000E-01   1.00800           0
     10218 MEMB     70       POPC     H5Y      HAL2     0.900000E-01   1.00800           0
     10219 MEMB     70       POPC     C36      CTL2    -0.180000       12.0110           0
     10220 MEMB     70       POPC     H6X      HAL2     0.900000E-01   1.00800           0
     10221 MEMB     70       POPC     H6Y      HAL2     0.900000E-01   1.00800           0
     10222 MEMB     70       POPC     C37      CTL2    -0.180000       12.0110           0
     10223 MEMB     70       POPC     H7X      HAL2     0.900000E-01   1.00800           0
     10224 MEMB     70       POPC     H7Y      HAL2     0.900000E-01   1.00800           0
     10225 MEMB     70       POPC     C38      CTL2    -0.180000       12.0110           0
     10226 MEMB     70       POPC     H8X      HAL2     0.900000E-01   1.00800           0
     10227 MEMB     70       POPC     H8Y      HAL2     0.900000E-01   1.00800           0
     10228 MEMB     70       POPC     C39      CTL2    -0.180000       12.0110           0
     10229 MEMB     70       POPC     H9X      HAL2     0.900000E-01   1.00800           0
     10230 MEMB     70       POPC     H9Y      HAL2     0.900000E-01   1.00800           0
     10231 MEMB     70       POPC     C310     CTL2    -0.180000       12.0110           0
     10232 MEMB     70       POPC     H10X     HAL2     0.900000E-01   1.00800           0
     10233 MEMB     70       POPC     H10Y     HAL2     0.900000E-01   1.00800           0
     10234 MEMB     70       POPC     C311     CTL2    -0.180000       12.0110           0
     10235 MEMB     70       POPC     H11X     HAL2     0.900000E-01   1.00800           0
     10236 MEMB     70       POPC     H11Y     HAL2     0.900000E-01   1.00800           0
     10237 MEMB     70       POPC     C312     CTL2    -0.180000       12.0110           0
     10238 MEMB     70       POPC     H12X     HAL2     0.900000E-01   1.00800           0
     10239 MEMB     70       POPC     H12Y     HAL2     0.900000E-01   1.00800           0
     10240 MEMB     70       POPC     C313     CTL2    -0.180000       12.0110           0
     10241 MEMB     70       POPC     H13X     HAL2     0.900000E-01   1.00800           0
     10242 MEMB     70       POPC     H13Y     HAL2     0.900000E-01   1.00800           0
     10243 MEMB     70       POPC     C314     CTL2    -0.180000       12.0110           0
     10244 MEMB     70       POPC     H14X     HAL2     0.900000E-01   1.00800           0
     10245 MEMB     70       POPC     H14Y     HAL2     0.900000E-01   1.00800           0
     10246 MEMB     70       POPC     C315     CTL2    -0.180000       12.0110           0
     10247 MEMB     70       POPC     H15X     HAL2     0.900000E-01   1.00800           0
     10248 MEMB     70       POPC     H15Y     HAL2     0.900000E-01   1.00800           0
     10249 MEMB     70       POPC     C316     CTL3    -0.270000       12.0110           0
     10250 MEMB     70       POPC     H16X     HAL3     0.900000E-01   1.00800           0
     10251 MEMB     70       POPC     H16Y     HAL3     0.900000E-01   1.00800           0
     10252 MEMB     70       POPC     H16Z     HAL3     0.900000E-01   1.00800           0
     10253 MEMB     71       POPC     N        NTL     -0.600000       14.0070           0
     10254 MEMB     71       POPC     C12      CTL2    -0.100000       12.0110           0
     10255 MEMB     71       POPC     H12A     HL       0.250000       1.00800           0
     10256 MEMB     71       POPC     H12B     HL       0.250000       1.00800           0
     10257 MEMB     71       POPC     C13      CTL5    -0.350000       12.0110           0
     10258 MEMB     71       POPC     H13A     HL       0.250000       1.00800           0
     10259 MEMB     71       POPC     H13B     HL       0.250000       1.00800           0
     10260 MEMB     71       POPC     H13C     HL       0.250000       1.00800           0
     10261 MEMB     71       POPC     C14      CTL5    -0.350000       12.0110           0
     10262 MEMB     71       POPC     H14A     HL       0.250000       1.00800           0
     10263 MEMB     71       POPC     H14B     HL       0.250000       1.00800           0
     10264 MEMB     71       POPC     H14C     HL       0.250000       1.00800           0
     10265 MEMB     71       POPC     C15      CTL5    -0.350000       12.0110           0
     10266 MEMB     71       POPC     H15A     HL       0.250000       1.00800           0
     10267 MEMB     71       POPC     H15B     HL       0.250000       1.00800           0
     10268 MEMB     71       POPC     H15C     HL       0.250000       1.00800           0
     10269 MEMB     71       POPC     C11      CTL2    -0.800000E-01   12.0110           0
     10270 MEMB     71       POPC     H11A     HAL2     0.900000E-01   1.00800           0
     10271 MEMB     71       POPC     H11B     HAL2     0.900000E-01   1.00800           0
     10272 MEMB     71       POPC     P        PL        1.50000       30.9740           0
     10273 MEMB     71       POPC     O13      O2L     -0.780000       15.9994           0
     10274 MEMB     71       POPC     O14      O2L     -0.780000       15.9994           0
     10275 MEMB     71       POPC     O12      OSLP    -0.570000       15.9994           0
     10276 MEMB     71       POPC     O11      OSLP    -0.570000       15.9994           0
     10277 MEMB     71       POPC     C1       CTL2    -0.800000E-01   12.0110           0
     10278 MEMB     71       POPC     HA       HAL2     0.900000E-01   1.00800           0
     10279 MEMB     71       POPC     HB       HAL2     0.900000E-01   1.00800           0
     10280 MEMB     71       POPC     C2       CTL1     0.170000       12.0110           0
     10281 MEMB     71       POPC     HS       HAL1     0.900000E-01   1.00800           0
     10282 MEMB     71       POPC     O21      OSL     -0.490000       15.9994           0
     10283 MEMB     71       POPC     C21      CL       0.900000       12.0110           0
     10284 MEMB     71       POPC     O22      OBL     -0.630000       15.9994           0
     10285 MEMB     71       POPC     C22      CTL2    -0.220000       12.0110           0
     10286 MEMB     71       POPC     H2R      HAL2     0.900000E-01   1.00800           0
     10287 MEMB     71       POPC     H2S      HAL2     0.900000E-01   1.00800           0
     10288 MEMB     71       POPC     C3       CTL2     0.800000E-01   12.0110           0
     10289 MEMB     71       POPC     HX       HAL2     0.900000E-01   1.00800           0
     10290 MEMB     71       POPC     HY       HAL2     0.900000E-01   1.00800           0
     10291 MEMB     71       POPC     O31      OSL     -0.490000       15.9994           0
     10292 MEMB     71       POPC     C31      CL       0.900000       12.0110           0
     10293 MEMB     71       POPC     O32      OBL     -0.630000       15.9994           0
     10294 MEMB     71       POPC     C32      CTL2    -0.220000       12.0110           0
     10295 MEMB     71       POPC     H2X      HAL2     0.900000E-01   1.00800           0
     10296 MEMB     71       POPC     H2Y      HAL2     0.900000E-01   1.00800           0
     10297 MEMB     71       POPC     C23      CTL2    -0.180000       12.0110           0
     10298 MEMB     71       POPC     H3R      HAL2     0.900000E-01   1.00800           0
     10299 MEMB     71       POPC     H3S      HAL2     0.900000E-01   1.00800           0
     10300 MEMB     71       POPC     C24      CTL2    -0.180000       12.0110           0
     10301 MEMB     71       POPC     H4R      HAL2     0.900000E-01   1.00800           0
     10302 MEMB     71       POPC     H4S      HAL2     0.900000E-01   1.00800           0
     10303 MEMB     71       POPC     C25      CTL2    -0.180000       12.0110           0
     10304 MEMB     71       POPC     H5R      HAL2     0.900000E-01   1.00800           0
     10305 MEMB     71       POPC     H5S      HAL2     0.900000E-01   1.00800           0
     10306 MEMB     71       POPC     C26      CTL2    -0.180000       12.0110           0
     10307 MEMB     71       POPC     H6R      HAL2     0.900000E-01   1.00800           0
     10308 MEMB     71       POPC     H6S      HAL2     0.900000E-01   1.00800           0
     10309 MEMB     71       POPC     C27      CTL2    -0.180000       12.0110           0
     10310 MEMB     71       POPC     H7R      HAL2     0.900000E-01   1.00800           0
     10311 MEMB     71       POPC     H7S      HAL2     0.900000E-01   1.00800           0
     10312 MEMB     71       POPC     C28      CTL2    -0.180000       12.0110           0
     10313 MEMB     71       POPC     H8R      HAL2     0.900000E-01   1.00800           0
     10314 MEMB     71       POPC     H8S      HAL2     0.900000E-01   1.00800           0
     10315 MEMB     71       POPC     C29      CEL1    -0.150000       12.0110           0
     10316 MEMB     71       POPC     H91      HEL1     0.150000       1.00800           0
     10317 MEMB     71       POPC     C210     CEL1    -0.150000       12.0110           0
     10318 MEMB     71       POPC     H101     HEL1     0.150000       1.00800           0
     10319 MEMB     71       POPC     C211     CTL2    -0.180000       12.0110           0
     10320 MEMB     71       POPC     H11R     HAL2     0.900000E-01   1.00800           0
     10321 MEMB     71       POPC     H11S     HAL2     0.900000E-01   1.00800           0
     10322 MEMB     71       POPC     C212     CTL2    -0.180000       12.0110           0
     10323 MEMB     71       POPC     H12R     HAL2     0.900000E-01   1.00800           0
     10324 MEMB     71       POPC     H12S     HAL2     0.900000E-01   1.00800           0
     10325 MEMB     71       POPC     C213     CTL2    -0.180000       12.0110           0
     10326 MEMB     71       POPC     H13R     HAL2     0.900000E-01   1.00800           0
     10327 MEMB     71       POPC     H13S     HAL2     0.900000E-01   1.00800           0
     10328 MEMB     71       POPC     C214     CTL2    -0.180000       12.0110           0
     10329 MEMB     71       POPC     H14R     HAL2     0.900000E-01   1.00800           0
     10330 MEMB     71       POPC     H14S     HAL2     0.900000E-01   1.00800           0
     10331 MEMB     71       POPC     C215     CTL2    -0.180000       12.0110           0
     10332 MEMB     71       POPC     H15R     HAL2     0.900000E-01   1.00800           0
     10333 MEMB     71       POPC     H15S     HAL2     0.900000E-01   1.00800           0
     10334 MEMB     71       POPC     C216     CTL2    -0.180000       12.0110           0
     10335 MEMB     71       POPC     H16R     HAL2     0.900000E-01   1.00800           0
     10336 MEMB     71       POPC     H16S     HAL2     0.900000E-01   1.00800           0
     10337 MEMB     71       POPC     C217     CTL2    -0.180000       12.0110           0
     10338 MEMB     71       POPC     H17R     HAL2     0.900000E-01   1.00800           0
     10339 MEMB     71       POPC     H17S     HAL2     0.900000E-01   1.00800           0
     10340 MEMB     71       POPC     C218     CTL3    -0.270000       12.0110           0
     10341 MEMB     71       POPC     H18R     HAL3     0.900000E-01   1.00800           0
     10342 MEMB     71       POPC     H18S     HAL3     0.900000E-01   1.00800           0
     10343 MEMB     71       POPC     H18T     HAL3     0.900000E-01   1.00800           0
     10344 MEMB     71       POPC     C33      CTL2    -0.180000       12.0110           0
     10345 MEMB     71       POPC     H3X      HAL2     0.900000E-01   1.00800           0
     10346 MEMB     71       POPC     H3Y      HAL2     0.900000E-01   1.00800           0
     10347 MEMB     71       POPC     C34      CTL2    -0.180000       12.0110           0
     10348 MEMB     71       POPC     H4X      HAL2     0.900000E-01   1.00800           0
     10349 MEMB     71       POPC     H4Y      HAL2     0.900000E-01   1.00800           0
     10350 MEMB     71       POPC     C35      CTL2    -0.180000       12.0110           0
     10351 MEMB     71       POPC     H5X      HAL2     0.900000E-01   1.00800           0
     10352 MEMB     71       POPC     H5Y      HAL2     0.900000E-01   1.00800           0
     10353 MEMB     71       POPC     C36      CTL2    -0.180000       12.0110           0
     10354 MEMB     71       POPC     H6X      HAL2     0.900000E-01   1.00800           0
     10355 MEMB     71       POPC     H6Y      HAL2     0.900000E-01   1.00800           0
     10356 MEMB     71       POPC     C37      CTL2    -0.180000       12.0110           0
     10357 MEMB     71       POPC     H7X      HAL2     0.900000E-01   1.00800           0
     10358 MEMB     71       POPC     H7Y      HAL2     0.900000E-01   1.00800           0
     10359 MEMB     71       POPC     C38      CTL2    -0.180000       12.0110           0
     10360 MEMB     71       POPC     H8X      HAL2     0.900000E-01   1.00800           0
     10361 MEMB     71       POPC     H8Y      HAL2     0.900000E-01   1.00800           0
     10362 MEMB     71       POPC     C39      CTL2    -0.180000       12.0110           0
     10363 MEMB     71       POPC     H9X      HAL2     0.900000E-01   1.00800           0
     10364 MEMB     71       POPC     H9Y      HAL2     0.900000E-01   1.00800           0
     10365 MEMB     71       POPC     C310     CTL2    -0.180000       12.0110           0
     10366 MEMB     71       POPC     H10X     HAL2     0.900000E-01   1.00800           0
     10367 MEMB     71       POPC     H10Y     HAL2     0.900000E-01   1.00800           0
     10368 MEMB     71       POPC     C311     CTL2    -0.180000       12.0110           0
     10369 MEMB     71       POPC     H11X     HAL2     0.900000E-01   1.00800           0
     10370 MEMB     71       POPC     H11Y     HAL2     0.900000E-01   1.00800           0
     10371 MEMB     71       POPC     C312     CTL2    -0.180000       12.0110           0
     10372 MEMB     71       POPC     H12X     HAL2     0.900000E-01   1.00800           0
     10373 MEMB     71       POPC     H12Y     HAL2     0.900000E-01   1.00800           0
     10374 MEMB     71       POPC     C313     CTL2    -0.180000       12.0110           0
     10375 MEMB     71       POPC     H13X     HAL2     0.900000E-01   1.00800           0
     10376 MEMB     71       POPC     H13Y     HAL2     0.900000E-01   1.00800           0
     10377 MEMB     71       POPC     C314     CTL2    -0.180000       12.0110           0
     10378 MEMB     71       POPC     H14X     HAL2     0.900000E-01   1.00800           0
     10379 MEMB     71       POPC     H14Y     HAL2     0.900000E-01   1.00800           0
     10380 MEMB     71       POPC     C315     CTL2    -0.180000       12.0110           0
     10381 MEMB     71       POPC     H15X     HAL2     0.900000E-01   1.00800           0
     10382 MEMB     71       POPC     H15Y     HAL2     0.900000E-01   1.00800           0
     10383 MEMB     71       POPC     C316     CTL3    -0.270000       12.0110           0
     10384 MEMB     71       POPC     H16X     HAL3     0.900000E-01   1.00800           0
     10385 MEMB     71       POPC     H16Y     HAL3     0.900000E-01   1.00800           0
     10386 MEMB     71       POPC     H16Z     HAL3     0.900000E-01   1.00800           0
     10387 MEMB     72       POPC     N        NTL     -0.600000       14.0070           0
     10388 MEMB     72       POPC     C12      CTL2    -0.100000       12.0110           0
     10389 MEMB     72       POPC     H12A     HL       0.250000       1.00800           0
     10390 MEMB     72       POPC     H12B     HL       0.250000       1.00800           0
     10391 MEMB     72       POPC     C13      CTL5    -0.350000       12.0110           0
     10392 MEMB     72       POPC     H13A     HL       0.250000       1.00800           0
     10393 MEMB     72       POPC     H13B     HL       0.250000       1.00800           0
     10394 MEMB     72       POPC     H13C     HL       0.250000       1.00800           0
     10395 MEMB     72       POPC     C14      CTL5    -0.350000       12.0110           0
     10396 MEMB     72       POPC     H14A     HL       0.250000       1.00800           0
     10397 MEMB     72       POPC     H14B     HL       0.250000       1.00800           0
     10398 MEMB     72       POPC     H14C     HL       0.250000       1.00800           0
     10399 MEMB     72       POPC     C15      CTL5    -0.350000       12.0110           0
     10400 MEMB     72       POPC     H15A     HL       0.250000       1.00800           0
     10401 MEMB     72       POPC     H15B     HL       0.250000       1.00800           0
     10402 MEMB     72       POPC     H15C     HL       0.250000       1.00800           0
     10403 MEMB     72       POPC     C11      CTL2    -0.800000E-01   12.0110           0
     10404 MEMB     72       POPC     H11A     HAL2     0.900000E-01   1.00800           0
     10405 MEMB     72       POPC     H11B     HAL2     0.900000E-01   1.00800           0
     10406 MEMB     72       POPC     P        PL        1.50000       30.9740           0
     10407 MEMB     72       POPC     O13      O2L     -0.780000       15.9994           0
     10408 MEMB     72       POPC     O14      O2L     -0.780000       15.9994           0
     10409 MEMB     72       POPC     O12      OSLP    -0.570000       15.9994           0
     10410 MEMB     72       POPC     O11      OSLP    -0.570000       15.9994           0
     10411 MEMB     72       POPC     C1       CTL2    -0.800000E-01   12.0110           0
     10412 MEMB     72       POPC     HA       HAL2     0.900000E-01   1.00800           0
     10413 MEMB     72       POPC     HB       HAL2     0.900000E-01   1.00800           0
     10414 MEMB     72       POPC     C2       CTL1     0.170000       12.0110           0
     10415 MEMB     72       POPC     HS       HAL1     0.900000E-01   1.00800           0
     10416 MEMB     72       POPC     O21      OSL     -0.490000       15.9994           0
     10417 MEMB     72       POPC     C21      CL       0.900000       12.0110           0
     10418 MEMB     72       POPC     O22      OBL     -0.630000       15.9994           0
     10419 MEMB     72       POPC     C22      CTL2    -0.220000       12.0110           0
     10420 MEMB     72       POPC     H2R      HAL2     0.900000E-01   1.00800           0
     10421 MEMB     72       POPC     H2S      HAL2     0.900000E-01   1.00800           0
     10422 MEMB     72       POPC     C3       CTL2     0.800000E-01   12.0110           0
     10423 MEMB     72       POPC     HX       HAL2     0.900000E-01   1.00800           0
     10424 MEMB     72       POPC     HY       HAL2     0.900000E-01   1.00800           0
     10425 MEMB     72       POPC     O31      OSL     -0.490000       15.9994           0
     10426 MEMB     72       POPC     C31      CL       0.900000       12.0110           0
     10427 MEMB     72       POPC     O32      OBL     -0.630000       15.9994           0
     10428 MEMB     72       POPC     C32      CTL2    -0.220000       12.0110           0
     10429 MEMB     72       POPC     H2X      HAL2     0.900000E-01   1.00800           0
     10430 MEMB     72       POPC     H2Y      HAL2     0.900000E-01   1.00800           0
     10431 MEMB     72       POPC     C23      CTL2    -0.180000       12.0110           0
     10432 MEMB     72       POPC     H3R      HAL2     0.900000E-01   1.00800           0
     10433 MEMB     72       POPC     H3S      HAL2     0.900000E-01   1.00800           0
     10434 MEMB     72       POPC     C24      CTL2    -0.180000       12.0110           0
     10435 MEMB     72       POPC     H4R      HAL2     0.900000E-01   1.00800           0
     10436 MEMB     72       POPC     H4S      HAL2     0.900000E-01   1.00800           0
     10437 MEMB     72       POPC     C25      CTL2    -0.180000       12.0110           0
     10438 MEMB     72       POPC     H5R      HAL2     0.900000E-01   1.00800           0
     10439 MEMB     72       POPC     H5S      HAL2     0.900000E-01   1.00800           0
     10440 MEMB     72       POPC     C26      CTL2    -0.180000       12.0110           0
     10441 MEMB     72       POPC     H6R      HAL2     0.900000E-01   1.00800           0
     10442 MEMB     72       POPC     H6S      HAL2     0.900000E-01   1.00800           0
     10443 MEMB     72       POPC     C27      CTL2    -0.180000       12.0110           0
     10444 MEMB     72       POPC     H7R      HAL2     0.900000E-01   1.00800           0
     10445 MEMB     72       POPC     H7S      HAL2     0.900000E-01   1.00800           0
     10446 MEMB     72       POPC     C28      CTL2    -0.180000       12.0110           0
     10447 MEMB     72       POPC     H8R      HAL2     0.900000E-01   1.00800           0
     10448 MEMB     72       POPC     H8S      HAL2     0.900000E-01   1.00800           0
     10449 MEMB     72       POPC     C29      CEL1    -0.150000       12.0110           0
     10450 MEMB     72       POPC     H91      HEL1     0.150000       1.00800           0
     10451 MEMB     72       POPC     C210     CEL1    -0.150000       12.0110           0
     10452 MEMB     72       POPC     H101     HEL1     0.150000       1.00800           0
     10453 MEMB     72       POPC     C211     CTL2    -0.180000       12.0110           0
     10454 MEMB     72       POPC     H11R     HAL2     0.900000E-01   1.00800           0
     10455 MEMB     72       POPC     H11S     HAL2     0.900000E-01   1.00800           0
     10456 MEMB     72       POPC     C212     CTL2    -0.180000       12.0110           0
     10457 MEMB     72       POPC     H12R     HAL2     0.900000E-01   1.00800           0
     10458 MEMB     72       POPC     H12S     HAL2     0.900000E-01   1.00800           0
     10459 MEMB     72       POPC     C213     CTL2    -0.180000       12.0110           0
     10460 MEMB     72       POPC     H13R     HAL2     0.900000E-01   1.00800           0
     10461 MEMB     72       POPC     H13S     HAL2     0.900000E-01   1.00800           0
     10462 MEMB     72       POPC     C214     CTL2    -0.180000       12.0110           0
     10463 MEMB     72       POPC     H14R     HAL2     0.900000E-01   1.00800           0
     10464 MEMB     72       POPC     H14S     HAL2     0.900000E-01   1.00800           0
     10465 MEMB     72       POPC     C215     CTL2    -0.180000       12.0110           0
     10466 MEMB     72       POPC     H15R     HAL2     0.900000E-01   1.00800           0
     10467 MEMB     72       POPC     H15S     HAL2     0.900000E-01   1.00800           0
     10468 MEMB     72       POPC     C216     CTL2    -0.180000       12.0110           0
     10469 MEMB     72       POPC     H16R     HAL2     0.900000E-01   1.00800           0
     10470 MEMB     72       POPC     H16S     HAL2     0.900000E-01   1.00800           0
     10471 MEMB     72       POPC     C217     CTL2    -0.180000       12.0110           0
     10472 MEMB     72       POPC     H17R     HAL2     0.900000E-01   1.00800           0
     10473 MEMB     72       POPC     H17S     HAL2     0.900000E-01   1.00800           0
     10474 MEMB     72       POPC     C218     CTL3    -0.270000       12.0110           0
     10475 MEMB     72       POPC     H18R     HAL3     0.900000E-01   1.00800           0
     10476 MEMB     72       POPC     H18S     HAL3     0.900000E-01   1.00800           0
     10477 MEMB     72       POPC     H18T     HAL3     0.900000E-01   1.00800           0
     10478 MEMB     72       POPC     C33      CTL2    -0.180000       12.0110           0
     10479 MEMB     72       POPC     H3X      HAL2     0.900000E-01   1.00800           0
     10480 MEMB     72       POPC     H3Y      HAL2     0.900000E-01   1.00800           0
     10481 MEMB     72       POPC     C34      CTL2    -0.180000       12.0110           0
     10482 MEMB     72       POPC     H4X      HAL2     0.900000E-01   1.00800           0
     10483 MEMB     72       POPC     H4Y      HAL2     0.900000E-01   1.00800           0
     10484 MEMB     72       POPC     C35      CTL2    -0.180000       12.0110           0
     10485 MEMB     72       POPC     H5X      HAL2     0.900000E-01   1.00800           0
     10486 MEMB     72       POPC     H5Y      HAL2     0.900000E-01   1.00800           0
     10487 MEMB     72       POPC     C36      CTL2    -0.180000       12.0110           0
     10488 MEMB     72       POPC     H6X      HAL2     0.900000E-01   1.00800           0
     10489 MEMB     72       POPC     H6Y      HAL2     0.900000E-01   1.00800           0
     10490 MEMB     72       POPC     C37      CTL2    -0.180000       12.0110           0
     10491 MEMB     72       POPC     H7X      HAL2     0.900000E-01   1.00800           0
     10492 MEMB     72       POPC     H7Y      HAL2     0.900000E-01   1.00800           0
     10493 MEMB     72       POPC     C38      CTL2    -0.180000       12.0110           0
     10494 MEMB     72       POPC     H8X      HAL2     0.900000E-01   1.00800           0
     10495 MEMB     72       POPC     H8Y      HAL2     0.900000E-01   1.00800           0
     10496 MEMB     72       POPC     C39      CTL2    -0.180000       12.0110           0
     10497 MEMB     72       POPC     H9X      HAL2     0.900000E-01   1.00800           0
     10498 MEMB     72       POPC     H9Y      HAL2     0.900000E-01   1.00800           0
     10499 MEMB     72       POPC     C310     CTL2    -0.180000       12.0110           0
     10500 MEMB     72       POPC     H10X     HAL2     0.900000E-01   1.00800           0
     10501 MEMB     72       POPC     H10Y     HAL2     0.900000E-01   1.00800           0
     10502 MEMB     72       POPC     C311     CTL2    -0.180000       12.0110           0
     10503 MEMB     72       POPC     H11X     HAL2     0.900000E-01   1.00800           0
     10504 MEMB     72       POPC     H11Y     HAL2     0.900000E-01   1.00800           0
     10505 MEMB     72       POPC     C312     CTL2    -0.180000       12.0110           0
     10506 MEMB     72       POPC     H12X     HAL2     0.900000E-01   1.00800           0
     10507 MEMB     72       POPC     H12Y     HAL2     0.900000E-01   1.00800           0
     10508 MEMB     72       POPC     C313     CTL2    -0.180000       12.0110           0
     10509 MEMB     72       POPC     H13X     HAL2     0.900000E-01   1.00800           0
     10510 MEMB     72       POPC     H13Y     HAL2     0.900000E-01   1.00800           0
     10511 MEMB     72       POPC     C314     CTL2    -0.180000       12.0110           0
     10512 MEMB     72       POPC     H14X     HAL2     0.900000E-01   1.00800           0
     10513 MEMB     72       POPC     H14Y     HAL2     0.900000E-01   1.00800           0
     10514 MEMB     72       POPC     C315     CTL2    -0.180000       12.0110           0
     10515 MEMB     72       POPC     H15X     HAL2     0.900000E-01   1.00800           0
     10516 MEMB     72       POPC     H15Y     HAL2     0.900000E-01   1.00800           0
     10517 MEMB     72       POPC     C316     CTL3    -0.270000       12.0110           0
     10518 MEMB     72       POPC     H16X     HAL3     0.900000E-01   1.00800           0
     10519 MEMB     72       POPC     H16Y     HAL3     0.900000E-01   1.00800           0
     10520 MEMB     72       POPC     H16Z     HAL3     0.900000E-01   1.00800           0
     10521 MEMB     73       POPC     N        NTL     -0.600000       14.0070           0
     10522 MEMB     73       POPC     C12      CTL2    -0.100000       12.0110           0
     10523 MEMB     73       POPC     H12A     HL       0.250000       1.00800           0
     10524 MEMB     73       POPC     H12B     HL       0.250000       1.00800           0
     10525 MEMB     73       POPC     C13      CTL5    -0.350000       12.0110           0
     10526 MEMB     73       POPC     H13A     HL       0.250000       1.00800           0
     10527 MEMB     73       POPC     H13B     HL       0.250000       1.00800           0
     10528 MEMB     73       POPC     H13C     HL       0.250000       1.00800           0
     10529 MEMB     73       POPC     C14      CTL5    -0.350000       12.0110           0
     10530 MEMB     73       POPC     H14A     HL       0.250000       1.00800           0
     10531 MEMB     73       POPC     H14B     HL       0.250000       1.00800           0
     10532 MEMB     73       POPC     H14C     HL       0.250000       1.00800           0
     10533 MEMB     73       POPC     C15      CTL5    -0.350000       12.0110           0
     10534 MEMB     73       POPC     H15A     HL       0.250000       1.00800           0
     10535 MEMB     73       POPC     H15B     HL       0.250000       1.00800           0
     10536 MEMB     73       POPC     H15C     HL       0.250000       1.00800           0
     10537 MEMB     73       POPC     C11      CTL2    -0.800000E-01   12.0110           0
     10538 MEMB     73       POPC     H11A     HAL2     0.900000E-01   1.00800           0
     10539 MEMB     73       POPC     H11B     HAL2     0.900000E-01   1.00800           0
     10540 MEMB     73       POPC     P        PL        1.50000       30.9740           0
     10541 MEMB     73       POPC     O13      O2L     -0.780000       15.9994           0
     10542 MEMB     73       POPC     O14      O2L     -0.780000       15.9994           0
     10543 MEMB     73       POPC     O12      OSLP    -0.570000       15.9994           0
     10544 MEMB     73       POPC     O11      OSLP    -0.570000       15.9994           0
     10545 MEMB     73       POPC     C1       CTL2    -0.800000E-01   12.0110           0
     10546 MEMB     73       POPC     HA       HAL2     0.900000E-01   1.00800           0
     10547 MEMB     73       POPC     HB       HAL2     0.900000E-01   1.00800           0
     10548 MEMB     73       POPC     C2       CTL1     0.170000       12.0110           0
     10549 MEMB     73       POPC     HS       HAL1     0.900000E-01   1.00800           0
     10550 MEMB     73       POPC     O21      OSL     -0.490000       15.9994           0
     10551 MEMB     73       POPC     C21      CL       0.900000       12.0110           0
     10552 MEMB     73       POPC     O22      OBL     -0.630000       15.9994           0
     10553 MEMB     73       POPC     C22      CTL2    -0.220000       12.0110           0
     10554 MEMB     73       POPC     H2R      HAL2     0.900000E-01   1.00800           0
     10555 MEMB     73       POPC     H2S      HAL2     0.900000E-01   1.00800           0
     10556 MEMB     73       POPC     C3       CTL2     0.800000E-01   12.0110           0
     10557 MEMB     73       POPC     HX       HAL2     0.900000E-01   1.00800           0
     10558 MEMB     73       POPC     HY       HAL2     0.900000E-01   1.00800           0
     10559 MEMB     73       POPC     O31      OSL     -0.490000       15.9994           0
     10560 MEMB     73       POPC     C31      CL       0.900000       12.0110           0
     10561 MEMB     73       POPC     O32      OBL     -0.630000       15.9994           0
     10562 MEMB     73       POPC     C32      CTL2    -0.220000       12.0110           0
     10563 MEMB     73       POPC     H2X      HAL2     0.900000E-01   1.00800           0
     10564 MEMB     73       POPC     H2Y      HAL2     0.900000E-01   1.00800           0
     10565 MEMB     73       POPC     C23      CTL2    -0.180000       12.0110           0
     10566 MEMB     73       POPC     H3R      HAL2     0.900000E-01   1.00800           0
     10567 MEMB     73       POPC     H3S      HAL2     0.900000E-01   1.00800           0
     10568 MEMB     73       POPC     C24      CTL2    -0.180000       12.0110           0
     10569 MEMB     73       POPC     H4R      HAL2     0.900000E-01   1.00800           0
     10570 MEMB     73       POPC     H4S      HAL2     0.900000E-01   1.00800           0
     10571 MEMB     73       POPC     C25      CTL2    -0.180000       12.0110           0
     10572 MEMB     73       POPC     H5R      HAL2     0.900000E-01   1.00800           0
     10573 MEMB     73       POPC     H5S      HAL2     0.900000E-01   1.00800           0
     10574 MEMB     73       POPC     C26      CTL2    -0.180000       12.0110           0
     10575 MEMB     73       POPC     H6R      HAL2     0.900000E-01   1.00800           0
     10576 MEMB     73       POPC     H6S      HAL2     0.900000E-01   1.00800           0
     10577 MEMB     73       POPC     C27      CTL2    -0.180000       12.0110           0
     10578 MEMB     73       POPC     H7R      HAL2     0.900000E-01   1.00800           0
     10579 MEMB     73       POPC     H7S      HAL2     0.900000E-01   1.00800           0
     10580 MEMB     73       POPC     C28      CTL2    -0.180000       12.0110           0
     10581 MEMB     73       POPC     H8R      HAL2     0.900000E-01   1.00800           0
     10582 MEMB     73       POPC     H8S      HAL2     0.900000E-01   1.00800           0
     10583 MEMB     73       POPC     C29      CEL1    -0.150000       12.0110           0
     10584 MEMB     73       POPC     H91      HEL1     0.150000       1.00800           0
     10585 MEMB     73       POPC     C210     CEL1    -0.150000       12.0110           0
     10586 MEMB     73       POPC     H101     HEL1     0.150000       1.00800           0
     10587 MEMB     73       POPC     C211     CTL2    -0.180000       12.0110           0
     10588 MEMB     73       POPC     H11R     HAL2     0.900000E-01   1.00800           0
     10589 MEMB     73       POPC     H11S     HAL2     0.900000E-01   1.00800           0
     10590 MEMB     73       POPC     C212     CTL2    -0.180000       12.0110           0
     10591 MEMB     73       POPC     H12R     HAL2     0.900000E-01   1.00800           0
     10592 MEMB     73       POPC     H12S     HAL2     0.900000E-01   1.00800           0
     10593 MEMB     73       POPC     C213     CTL2    -0.180000       12.0110           0
     10594 MEMB     73       POPC     H13R     HAL2     0.900000E-01   1.00800           0
     10595 MEMB     73       POPC     H13S     HAL2     0.900000E-01   1.00800           0
     10596 MEMB     73       POPC     C214     CTL2    -0.180000       12.0110           0
     10597 MEMB     73       POPC     H14R     HAL2     0.900000E-01   1.00800           0
     10598 MEMB     73       POPC     H14S     HAL2     0.900000E-01   1.00800           0
     10599 MEMB     73       POPC     C215     CTL2    -0.180000       12.0110           0
     10600 MEMB     73       POPC     H15R     HAL2     0.900000E-01   1.00800           0
     10601 MEMB     73       POPC     H15S     HAL2     0.900000E-01   1.00800           0
     10602 MEMB     73       POPC     C216     CTL2    -0.180000       12.0110           0
     10603 MEMB     73       POPC     H16R     HAL2     0.900000E-01   1.00800           0
     10604 MEMB     73       POPC     H16S     HAL2     0.900000E-01   1.00800           0
     10605 MEMB     73       POPC     C217     CTL2    -0.180000       12.0110           0
     10606 MEMB     73       POPC     H17R     HAL2     0.900000E-01   1.00800           0
     10607 MEMB     73       POPC     H17S     HAL2     0.900000E-01   1.00800           0
     10608 MEMB     73       POPC     C218     CTL3    -0.270000       12.0110           0
     10609 MEMB     73       POPC     H18R     HAL3     0.900000E-01   1.00800           0
     10610 MEMB     73       POPC     H18S     HAL3     0.900000E-01   1.00800           0
     10611 MEMB     73       POPC     H18T     HAL3     0.900000E-01   1.00800           0
     10612 MEMB     73       POPC     C33      CTL2    -0.180000       12.0110           0
     10613 MEMB     73       POPC     H3X      HAL2     0.900000E-01   1.00800           0
     10614 MEMB     73       POPC     H3Y      HAL2     0.900000E-01   1.00800           0
     10615 MEMB     73       POPC     C34      CTL2    -0.180000       12.0110           0
     10616 MEMB     73       POPC     H4X      HAL2     0.900000E-01   1.00800           0
     10617 MEMB     73       POPC     H4Y      HAL2     0.900000E-01   1.00800           0
     10618 MEMB     73       POPC     C35      CTL2    -0.180000       12.0110           0
     10619 MEMB     73       POPC     H5X      HAL2     0.900000E-01   1.00800           0
     10620 MEMB     73       POPC     H5Y      HAL2     0.900000E-01   1.00800           0
     10621 MEMB     73       POPC     C36      CTL2    -0.180000       12.0110           0
     10622 MEMB     73       POPC     H6X      HAL2     0.900000E-01   1.00800           0
     10623 MEMB     73       POPC     H6Y      HAL2     0.900000E-01   1.00800           0
     10624 MEMB     73       POPC     C37      CTL2    -0.180000       12.0110           0
     10625 MEMB     73       POPC     H7X      HAL2     0.900000E-01   1.00800           0
     10626 MEMB     73       POPC     H7Y      HAL2     0.900000E-01   1.00800           0
     10627 MEMB     73       POPC     C38      CTL2    -0.180000       12.0110           0
     10628 MEMB     73       POPC     H8X      HAL2     0.900000E-01   1.00800           0
     10629 MEMB     73       POPC     H8Y      HAL2     0.900000E-01   1.00800           0
     10630 MEMB     73       POPC     C39      CTL2    -0.180000       12.0110           0
     10631 MEMB     73       POPC     H9X      HAL2     0.900000E-01   1.00800           0
     10632 MEMB     73       POPC     H9Y      HAL2     0.900000E-01   1.00800           0
     10633 MEMB     73       POPC     C310     CTL2    -0.180000       12.0110           0
     10634 MEMB     73       POPC     H10X     HAL2     0.900000E-01   1.00800           0
     10635 MEMB     73       POPC     H10Y     HAL2     0.900000E-01   1.00800           0
     10636 MEMB     73       POPC     C311     CTL2    -0.180000       12.0110           0
     10637 MEMB     73       POPC     H11X     HAL2     0.900000E-01   1.00800           0
     10638 MEMB     73       POPC     H11Y     HAL2     0.900000E-01   1.00800           0
     10639 MEMB     73       POPC     C312     CTL2    -0.180000       12.0110           0
     10640 MEMB     73       POPC     H12X     HAL2     0.900000E-01   1.00800           0
     10641 MEMB     73       POPC     H12Y     HAL2     0.900000E-01   1.00800           0
     10642 MEMB     73       POPC     C313     CTL2    -0.180000       12.0110           0
     10643 MEMB     73       POPC     H13X     HAL2     0.900000E-01   1.00800           0
     10644 MEMB     73       POPC     H13Y     HAL2     0.900000E-01   1.00800           0
     10645 MEMB     73       POPC     C314     CTL2    -0.180000       12.0110           0
     10646 MEMB     73       POPC     H14X     HAL2     0.900000E-01   1.00800           0
     10647 MEMB     73       POPC     H14Y     HAL2     0.900000E-01   1.00800           0
     10648 MEMB     73       POPC     C315     CTL2    -0.180000       12.0110           0
     10649 MEMB     73       POPC     H15X     HAL2     0.900000E-01   1.00800           0
     10650 MEMB     73       POPC     H15Y     HAL2     0.900000E-01   1.00800           0
     10651 MEMB     73       POPC     C316     CTL3    -0.270000       12.0110           0
     10652 MEMB     73       POPC     H16X     HAL3     0.900000E-01   1.00800           0
     10653 MEMB     73       POPC     H16Y     HAL3     0.900000E-01   1.00800           0
     10654 MEMB     73       POPC     H16Z     HAL3     0.900000E-01   1.00800           0
     10655 MEMB     74       POPC     N        NTL     -0.600000       14.0070           0
     10656 MEMB     74       POPC     C12      CTL2    -0.100000       12.0110           0
     10657 MEMB     74       POPC     H12A     HL       0.250000       1.00800           0
     10658 MEMB     74       POPC     H12B     HL       0.250000       1.00800           0
     10659 MEMB     74       POPC     C13      CTL5    -0.350000       12.0110           0
     10660 MEMB     74       POPC     H13A     HL       0.250000       1.00800           0
     10661 MEMB     74       POPC     H13B     HL       0.250000       1.00800           0
     10662 MEMB     74       POPC     H13C     HL       0.250000       1.00800           0
     10663 MEMB     74       POPC     C14      CTL5    -0.350000       12.0110           0
     10664 MEMB     74       POPC     H14A     HL       0.250000       1.00800           0
     10665 MEMB     74       POPC     H14B     HL       0.250000       1.00800           0
     10666 MEMB     74       POPC     H14C     HL       0.250000       1.00800           0
     10667 MEMB     74       POPC     C15      CTL5    -0.350000       12.0110           0
     10668 MEMB     74       POPC     H15A     HL       0.250000       1.00800           0
     10669 MEMB     74       POPC     H15B     HL       0.250000       1.00800           0
     10670 MEMB     74       POPC     H15C     HL       0.250000       1.00800           0
     10671 MEMB     74       POPC     C11      CTL2    -0.800000E-01   12.0110           0
     10672 MEMB     74       POPC     H11A     HAL2     0.900000E-01   1.00800           0
     10673 MEMB     74       POPC     H11B     HAL2     0.900000E-01   1.00800           0
     10674 MEMB     74       POPC     P        PL        1.50000       30.9740           0
     10675 MEMB     74       POPC     O13      O2L     -0.780000       15.9994           0
     10676 MEMB     74       POPC     O14      O2L     -0.780000       15.9994           0
     10677 MEMB     74       POPC     O12      OSLP    -0.570000       15.9994           0
     10678 MEMB     74       POPC     O11      OSLP    -0.570000       15.9994           0
     10679 MEMB     74       POPC     C1       CTL2    -0.800000E-01   12.0110           0
     10680 MEMB     74       POPC     HA       HAL2     0.900000E-01   1.00800           0
     10681 MEMB     74       POPC     HB       HAL2     0.900000E-01   1.00800           0
     10682 MEMB     74       POPC     C2       CTL1     0.170000       12.0110           0
     10683 MEMB     74       POPC     HS       HAL1     0.900000E-01   1.00800           0
     10684 MEMB     74       POPC     O21      OSL     -0.490000       15.9994           0
     10685 MEMB     74       POPC     C21      CL       0.900000       12.0110           0
     10686 MEMB     74       POPC     O22      OBL     -0.630000       15.9994           0
     10687 MEMB     74       POPC     C22      CTL2    -0.220000       12.0110           0
     10688 MEMB     74       POPC     H2R      HAL2     0.900000E-01   1.00800           0
     10689 MEMB     74       POPC     H2S      HAL2     0.900000E-01   1.00800           0
     10690 MEMB     74       POPC     C3       CTL2     0.800000E-01   12.0110           0
     10691 MEMB     74       POPC     HX       HAL2     0.900000E-01   1.00800           0
     10692 MEMB     74       POPC     HY       HAL2     0.900000E-01   1.00800           0
     10693 MEMB     74       POPC     O31      OSL     -0.490000       15.9994           0
     10694 MEMB     74       POPC     C31      CL       0.900000       12.0110           0
     10695 MEMB     74       POPC     O32      OBL     -0.630000       15.9994           0
     10696 MEMB     74       POPC     C32      CTL2    -0.220000       12.0110           0
     10697 MEMB     74       POPC     H2X      HAL2     0.900000E-01   1.00800           0
     10698 MEMB     74       POPC     H2Y      HAL2     0.900000E-01   1.00800           0
     10699 MEMB     74       POPC     C23      CTL2    -0.180000       12.0110           0
     10700 MEMB     74       POPC     H3R      HAL2     0.900000E-01   1.00800           0
     10701 MEMB     74       POPC     H3S      HAL2     0.900000E-01   1.00800           0
     10702 MEMB     74       POPC     C24      CTL2    -0.180000       12.0110           0
     10703 MEMB     74       POPC     H4R      HAL2     0.900000E-01   1.00800           0
     10704 MEMB     74       POPC     H4S      HAL2     0.900000E-01   1.00800           0
     10705 MEMB     74       POPC     C25      CTL2    -0.180000       12.0110           0
     10706 MEMB     74       POPC     H5R      HAL2     0.900000E-01   1.00800           0
     10707 MEMB     74       POPC     H5S      HAL2     0.900000E-01   1.00800           0
     10708 MEMB     74       POPC     C26      CTL2    -0.180000       12.0110           0
     10709 MEMB     74       POPC     H6R      HAL2     0.900000E-01   1.00800           0
     10710 MEMB     74       POPC     H6S      HAL2     0.900000E-01   1.00800           0
     10711 MEMB     74       POPC     C27      CTL2    -0.180000       12.0110           0
     10712 MEMB     74       POPC     H7R      HAL2     0.900000E-01   1.00800           0
     10713 MEMB     74       POPC     H7S      HAL2     0.900000E-01   1.00800           0
     10714 MEMB     74       POPC     C28      CTL2    -0.180000       12.0110           0
     10715 MEMB     74       POPC     H8R      HAL2     0.900000E-01   1.00800           0
     10716 MEMB     74       POPC     H8S      HAL2     0.900000E-01   1.00800           0
     10717 MEMB     74       POPC     C29      CEL1    -0.150000       12.0110           0
     10718 MEMB     74       POPC     H91      HEL1     0.150000       1.00800           0
     10719 MEMB     74       POPC     C210     CEL1    -0.150000       12.0110           0
     10720 MEMB     74       POPC     H101     HEL1     0.150000       1.00800           0
     10721 MEMB     74       POPC     C211     CTL2    -0.180000       12.0110           0
     10722 MEMB     74       POPC     H11R     HAL2     0.900000E-01   1.00800           0
     10723 MEMB     74       POPC     H11S     HAL2     0.900000E-01   1.00800           0
     10724 MEMB     74       POPC     C212     CTL2    -0.180000       12.0110           0
     10725 MEMB     74       POPC     H12R     HAL2     0.900000E-01   1.00800           0
     10726 MEMB     74       POPC     H12S     HAL2     0.900000E-01   1.00800           0
     10727 MEMB     74       POPC     C213     CTL2    -0.180000       12.0110           0
     10728 MEMB     74       POPC     H13R     HAL2     0.900000E-01   1.00800           0
     10729 MEMB     74       POPC     H13S     HAL2     0.900000E-01   1.00800           0
     10730 MEMB     74       POPC     C214     CTL2    -0.180000       12.0110           0
     10731 MEMB     74       POPC     H14R     HAL2     0.900000E-01   1.00800           0
     10732 MEMB     74       POPC     H14S     HAL2     0.900000E-01   1.00800           0
     10733 MEMB     74       POPC     C215     CTL2    -0.180000       12.0110           0
     10734 MEMB     74       POPC     H15R     HAL2     0.900000E-01   1.00800           0
     10735 MEMB     74       POPC     H15S     HAL2     0.900000E-01   1.00800           0
     10736 MEMB     74       POPC     C216     CTL2    -0.180000       12.0110           0
     10737 MEMB     74       POPC     H16R     HAL2     0.900000E-01   1.00800           0
     10738 MEMB     74       POPC     H16S     HAL2     0.900000E-01   1.00800           0
     10739 MEMB     74       POPC     C217     CTL2    -0.180000       12.0110           0
     10740 MEMB     74       POPC     H17R     HAL2     0.900000E-01   1.00800           0
     10741 MEMB     74       POPC     H17S     HAL2     0.900000E-01   1.00800           0
     10742 MEMB     74       POPC     C218     CTL3    -0.270000       12.0110           0
     10743 MEMB     74       POPC     H18R     HAL3     0.900000E-01   1.00800           0
     10744 MEMB     74       POPC     H18S     HAL3     0.900000E-01   1.00800           0
     10745 MEMB     74       POPC     H18T     HAL3     0.900000E-01   1.00800           0
     10746 MEMB     74       POPC     C33      CTL2    -0.180000       12.0110           0
     10747 MEMB     74       POPC     H3X      HAL2     0.900000E-01   1.00800           0
     10748 MEMB     74       POPC     H3Y      HAL2     0.900000E-01   1.00800           0
     10749 MEMB     74       POPC     C34      CTL2    -0.180000       12.0110           0
     10750 MEMB     74       POPC     H4X      HAL2     0.900000E-01   1.00800           0
     10751 MEMB     74       POPC     H4Y      HAL2     0.900000E-01   1.00800           0
     10752 MEMB     74       POPC     C35      CTL2    -0.180000       12.0110           0
     10753 MEMB     74       POPC     H5X      HAL2     0.900000E-01   1.00800           0
     10754 MEMB     74       POPC     H5Y      HAL2     0.900000E-01   1.00800           0
     10755 MEMB     74       POPC     C36      CTL2    -0.180000       12.0110           0
     10756 MEMB     74       POPC     H6X      HAL2     0.900000E-01   1.00800           0
     10757 MEMB     74       POPC     H6Y      HAL2     0.900000E-01   1.00800           0
     10758 MEMB     74       POPC     C37      CTL2    -0.180000       12.0110           0
     10759 MEMB     74       POPC     H7X      HAL2     0.900000E-01   1.00800           0
     10760 MEMB     74       POPC     H7Y      HAL2     0.900000E-01   1.00800           0
     10761 MEMB     74       POPC     C38      CTL2    -0.180000       12.0110           0
     10762 MEMB     74       POPC     H8X      HAL2     0.900000E-01   1.00800           0
     10763 MEMB     74       POPC     H8Y      HAL2     0.900000E-01   1.00800           0
     10764 MEMB     74       POPC     C39      CTL2    -0.180000       12.0110           0
     10765 MEMB     74       POPC     H9X      HAL2     0.900000E-01   1.00800           0
     10766 MEMB     74       POPC     H9Y      HAL2     0.900000E-01   1.00800           0
     10767 MEMB     74       POPC     C310     CTL2    -0.180000       12.0110           0
     10768 MEMB     74       POPC     H10X     HAL2     0.900000E-01   1.00800           0
     10769 MEMB     74       POPC     H10Y     HAL2     0.900000E-01   1.00800           0
     10770 MEMB     74       POPC     C311     CTL2    -0.180000       12.0110           0
     10771 MEMB     74       POPC     H11X     HAL2     0.900000E-01   1.00800           0
     10772 MEMB     74       POPC     H11Y     HAL2     0.900000E-01   1.00800           0
     10773 MEMB     74       POPC     C312     CTL2    -0.180000       12.0110           0
     10774 MEMB     74       POPC     H12X     HAL2     0.900000E-01   1.00800           0
     10775 MEMB     74       POPC     H12Y     HAL2     0.900000E-01   1.00800           0
     10776 MEMB     74       POPC     C313     CTL2    -0.180000       12.0110           0
     10777 MEMB     74       POPC     H13X     HAL2     0.900000E-01   1.00800           0
     10778 MEMB     74       POPC     H13Y     HAL2     0.900000E-01   1.00800           0
     10779 MEMB     74       POPC     C314     CTL2    -0.180000       12.0110           0
     10780 MEMB     74       POPC     H14X     HAL2     0.900000E-01   1.00800           0
     10781 MEMB     74       POPC     H14Y     HAL2     0.900000E-01   1.00800           0
     10782 MEMB     74       POPC     C315     CTL2    -0.180000       12.0110           0
     10783 MEMB     74       POPC     H15X     HAL2     0.900000E-01   1.00800           0
     10784 MEMB     74       POPC     H15Y     HAL2     0.900000E-01   1.00800           0
     10785 MEMB     74       POPC     C316     CTL3    -0.270000       12.0110           0
     10786 MEMB     74       POPC     H16X     HAL3     0.900000E-01   1.00800           0
     10787 MEMB     74       POPC     H16Y     HAL3     0.900000E-01   1.00800           0
     10788 MEMB     74       POPC     H16Z     HAL3     0.900000E-01   1.00800           0
     10789 MEMB     75       POPC     N        NTL     -0.600000       14.0070           0
     10790 MEMB     75       POPC     C12      CTL2    -0.100000       12.0110           0
     10791 MEMB     75       POPC     H12A     HL       0.250000       1.00800           0
     10792 MEMB     75       POPC     H12B     HL       0.250000       1.00800           0
     10793 MEMB     75       POPC     C13      CTL5    -0.350000       12.0110           0
     10794 MEMB     75       POPC     H13A     HL       0.250000       1.00800           0
     10795 MEMB     75       POPC     H13B     HL       0.250000       1.00800           0
     10796 MEMB     75       POPC     H13C     HL       0.250000       1.00800           0
     10797 MEMB     75       POPC     C14      CTL5    -0.350000       12.0110           0
     10798 MEMB     75       POPC     H14A     HL       0.250000       1.00800           0
     10799 MEMB     75       POPC     H14B     HL       0.250000       1.00800           0
     10800 MEMB     75       POPC     H14C     HL       0.250000       1.00800           0
     10801 MEMB     75       POPC     C15      CTL5    -0.350000       12.0110           0
     10802 MEMB     75       POPC     H15A     HL       0.250000       1.00800           0
     10803 MEMB     75       POPC     H15B     HL       0.250000       1.00800           0
     10804 MEMB     75       POPC     H15C     HL       0.250000       1.00800           0
     10805 MEMB     75       POPC     C11      CTL2    -0.800000E-01   12.0110           0
     10806 MEMB     75       POPC     H11A     HAL2     0.900000E-01   1.00800           0
     10807 MEMB     75       POPC     H11B     HAL2     0.900000E-01   1.00800           0
     10808 MEMB     75       POPC     P        PL        1.50000       30.9740           0
     10809 MEMB     75       POPC     O13      O2L     -0.780000       15.9994           0
     10810 MEMB     75       POPC     O14      O2L     -0.780000       15.9994           0
     10811 MEMB     75       POPC     O12      OSLP    -0.570000       15.9994           0
     10812 MEMB     75       POPC     O11      OSLP    -0.570000       15.9994           0
     10813 MEMB     75       POPC     C1       CTL2    -0.800000E-01   12.0110           0
     10814 MEMB     75       POPC     HA       HAL2     0.900000E-01   1.00800           0
     10815 MEMB     75       POPC     HB       HAL2     0.900000E-01   1.00800           0
     10816 MEMB     75       POPC     C2       CTL1     0.170000       12.0110           0
     10817 MEMB     75       POPC     HS       HAL1     0.900000E-01   1.00800           0
     10818 MEMB     75       POPC     O21      OSL     -0.490000       15.9994           0
     10819 MEMB     75       POPC     C21      CL       0.900000       12.0110           0
     10820 MEMB     75       POPC     O22      OBL     -0.630000       15.9994           0
     10821 MEMB     75       POPC     C22      CTL2    -0.220000       12.0110           0
     10822 MEMB     75       POPC     H2R      HAL2     0.900000E-01   1.00800           0
     10823 MEMB     75       POPC     H2S      HAL2     0.900000E-01   1.00800           0
     10824 MEMB     75       POPC     C3       CTL2     0.800000E-01   12.0110           0
     10825 MEMB     75       POPC     HX       HAL2     0.900000E-01   1.00800           0
     10826 MEMB     75       POPC     HY       HAL2     0.900000E-01   1.00800           0
     10827 MEMB     75       POPC     O31      OSL     -0.490000       15.9994           0
     10828 MEMB     75       POPC     C31      CL       0.900000       12.0110           0
     10829 MEMB     75       POPC     O32      OBL     -0.630000       15.9994           0
     10830 MEMB     75       POPC     C32      CTL2    -0.220000       12.0110           0
     10831 MEMB     75       POPC     H2X      HAL2     0.900000E-01   1.00800           0
     10832 MEMB     75       POPC     H2Y      HAL2     0.900000E-01   1.00800           0
     10833 MEMB     75       POPC     C23      CTL2    -0.180000       12.0110           0
     10834 MEMB     75       POPC     H3R      HAL2     0.900000E-01   1.00800           0
     10835 MEMB     75       POPC     H3S      HAL2     0.900000E-01   1.00800           0
     10836 MEMB     75       POPC     C24      CTL2    -0.180000       12.0110           0
     10837 MEMB     75       POPC     H4R      HAL2     0.900000E-01   1.00800           0
     10838 MEMB     75       POPC     H4S      HAL2     0.900000E-01   1.00800           0
     10839 MEMB     75       POPC     C25      CTL2    -0.180000       12.0110           0
     10840 MEMB     75       POPC     H5R      HAL2     0.900000E-01   1.00800           0
     10841 MEMB     75       POPC     H5S      HAL2     0.900000E-01   1.00800           0
     10842 MEMB     75       POPC     C26      CTL2    -0.180000       12.0110           0
     10843 MEMB     75       POPC     H6R      HAL2     0.900000E-01   1.00800           0
     10844 MEMB     75       POPC     H6S      HAL2     0.900000E-01   1.00800           0
     10845 MEMB     75       POPC     C27      CTL2    -0.180000       12.0110           0
     10846 MEMB     75       POPC     H7R      HAL2     0.900000E-01   1.00800           0
     10847 MEMB     75       POPC     H7S      HAL2     0.900000E-01   1.00800           0
     10848 MEMB     75       POPC     C28      CTL2    -0.180000       12.0110           0
     10849 MEMB     75       POPC     H8R      HAL2     0.900000E-01   1.00800           0
     10850 MEMB     75       POPC     H8S      HAL2     0.900000E-01   1.00800           0
     10851 MEMB     75       POPC     C29      CEL1    -0.150000       12.0110           0
     10852 MEMB     75       POPC     H91      HEL1     0.150000       1.00800           0
     10853 MEMB     75       POPC     C210     CEL1    -0.150000       12.0110           0
     10854 MEMB     75       POPC     H101     HEL1     0.150000       1.00800           0
     10855 MEMB     75       POPC     C211     CTL2    -0.180000       12.0110           0
     10856 MEMB     75       POPC     H11R     HAL2     0.900000E-01   1.00800           0
     10857 MEMB     75       POPC     H11S     HAL2     0.900000E-01   1.00800           0
     10858 MEMB     75       POPC     C212     CTL2    -0.180000       12.0110           0
     10859 MEMB     75       POPC     H12R     HAL2     0.900000E-01   1.00800           0
     10860 MEMB     75       POPC     H12S     HAL2     0.900000E-01   1.00800           0
     10861 MEMB     75       POPC     C213     CTL2    -0.180000       12.0110           0
     10862 MEMB     75       POPC     H13R     HAL2     0.900000E-01   1.00800           0
     10863 MEMB     75       POPC     H13S     HAL2     0.900000E-01   1.00800           0
     10864 MEMB     75       POPC     C214     CTL2    -0.180000       12.0110           0
     10865 MEMB     75       POPC     H14R     HAL2     0.900000E-01   1.00800           0
     10866 MEMB     75       POPC     H14S     HAL2     0.900000E-01   1.00800           0
     10867 MEMB     75       POPC     C215     CTL2    -0.180000       12.0110           0
     10868 MEMB     75       POPC     H15R     HAL2     0.900000E-01   1.00800           0
     10869 MEMB     75       POPC     H15S     HAL2     0.900000E-01   1.00800           0
     10870 MEMB     75       POPC     C216     CTL2    -0.180000       12.0110           0
     10871 MEMB     75       POPC     H16R     HAL2     0.900000E-01   1.00800           0
     10872 MEMB     75       POPC     H16S     HAL2     0.900000E-01   1.00800           0
     10873 MEMB     75       POPC     C217     CTL2    -0.180000       12.0110           0
     10874 MEMB     75       POPC     H17R     HAL2     0.900000E-01   1.00800           0
     10875 MEMB     75       POPC     H17S     HAL2     0.900000E-01   1.00800           0
     10876 MEMB     75       POPC     C218     CTL3    -0.270000       12.0110           0
     10877 MEMB     75       POPC     H18R     HAL3     0.900000E-01   1.00800           0
     10878 MEMB     75       POPC     H18S     HAL3     0.900000E-01   1.00800           0
     10879 MEMB     75       POPC     H18T     HAL3     0.900000E-01   1.00800           0
     10880 MEMB     75       POPC     C33      CTL2    -0.180000       12.0110           0
     10881 MEMB     75       POPC     H3X      HAL2     0.900000E-01   1.00800           0
     10882 MEMB     75       POPC     H3Y      HAL2     0.900000E-01   1.00800           0
     10883 MEMB     75       POPC     C34      CTL2    -0.180000       12.0110           0
     10884 MEMB     75       POPC     H4X      HAL2     0.900000E-01   1.00800           0
     10885 MEMB     75       POPC     H4Y      HAL2     0.900000E-01   1.00800           0
     10886 MEMB     75       POPC     C35      CTL2    -0.180000       12.0110           0
     10887 MEMB     75       POPC     H5X      HAL2     0.900000E-01   1.00800           0
     10888 MEMB     75       POPC     H5Y      HAL2     0.900000E-01   1.00800           0
     10889 MEMB     75       POPC     C36      CTL2    -0.180000       12.0110           0
     10890 MEMB     75       POPC     H6X      HAL2     0.900000E-01   1.00800           0
     10891 MEMB     75       POPC     H6Y      HAL2     0.900000E-01   1.00800           0
     10892 MEMB     75       POPC     C37      CTL2    -0.180000       12.0110           0
     10893 MEMB     75       POPC     H7X      HAL2     0.900000E-01   1.00800           0
     10894 MEMB     75       POPC     H7Y      HAL2     0.900000E-01   1.00800           0
     10895 MEMB     75       POPC     C38      CTL2    -0.180000       12.0110           0
     10896 MEMB     75       POPC     H8X      HAL2     0.900000E-01   1.00800           0
     10897 MEMB     75       POPC     H8Y      HAL2     0.900000E-01   1.00800           0
     10898 MEMB     75       POPC     C39      CTL2    -0.180000       12.0110           0
     10899 MEMB     75       POPC     H9X      HAL2     0.900000E-01   1.00800           0
     10900 MEMB     75       POPC     H9Y      HAL2     0.900000E-01   1.00800           0
     10901 MEMB     75       POPC     C310     CTL2    -0.180000       12.0110           0
     10902 MEMB     75       POPC     H10X     HAL2     0.900000E-01   1.00800           0
     10903 MEMB     75       POPC     H10Y     HAL2     0.900000E-01   1.00800           0
     10904 MEMB     75       POPC     C311     CTL2    -0.180000       12.0110           0
     10905 MEMB     75       POPC     H11X     HAL2     0.900000E-01   1.00800           0
     10906 MEMB     75       POPC     H11Y     HAL2     0.900000E-01   1.00800           0
     10907 MEMB     75       POPC     C312     CTL2    -0.180000       12.0110           0
     10908 MEMB     75       POPC     H12X     HAL2     0.900000E-01   1.00800           0
     10909 MEMB     75       POPC     H12Y     HAL2     0.900000E-01   1.00800           0
     10910 MEMB     75       POPC     C313     CTL2    -0.180000       12.0110           0
     10911 MEMB     75       POPC     H13X     HAL2     0.900000E-01   1.00800           0
     10912 MEMB     75       POPC     H13Y     HAL2     0.900000E-01   1.00800           0
     10913 MEMB     75       POPC     C314     CTL2    -0.180000       12.0110           0
     10914 MEMB     75       POPC     H14X     HAL2     0.900000E-01   1.00800           0
     10915 MEMB     75       POPC     H14Y     HAL2     0.900000E-01   1.00800           0
     10916 MEMB     75       POPC     C315     CTL2    -0.180000       12.0110           0
     10917 MEMB     75       POPC     H15X     HAL2     0.900000E-01   1.00800           0
     10918 MEMB     75       POPC     H15Y     HAL2     0.900000E-01   1.00800           0
     10919 MEMB     75       POPC     C316     CTL3    -0.270000       12.0110           0
     10920 MEMB     75       POPC     H16X     HAL3     0.900000E-01   1.00800           0
     10921 MEMB     75       POPC     H16Y     HAL3     0.900000E-01   1.00800           0
     10922 MEMB     75       POPC     H16Z     HAL3     0.900000E-01   1.00800           0
     10923 MEMB     76       POPC     N        NTL     -0.600000       14.0070           0
     10924 MEMB     76       POPC     C12      CTL2    -0.100000       12.0110           0
     10925 MEMB     76       POPC     H12A     HL       0.250000       1.00800           0
     10926 MEMB     76       POPC     H12B     HL       0.250000       1.00800           0
     10927 MEMB     76       POPC     C13      CTL5    -0.350000       12.0110           0
     10928 MEMB     76       POPC     H13A     HL       0.250000       1.00800           0
     10929 MEMB     76       POPC     H13B     HL       0.250000       1.00800           0
     10930 MEMB     76       POPC     H13C     HL       0.250000       1.00800           0
     10931 MEMB     76       POPC     C14      CTL5    -0.350000       12.0110           0
     10932 MEMB     76       POPC     H14A     HL       0.250000       1.00800           0
     10933 MEMB     76       POPC     H14B     HL       0.250000       1.00800           0
     10934 MEMB     76       POPC     H14C     HL       0.250000       1.00800           0
     10935 MEMB     76       POPC     C15      CTL5    -0.350000       12.0110           0
     10936 MEMB     76       POPC     H15A     HL       0.250000       1.00800           0
     10937 MEMB     76       POPC     H15B     HL       0.250000       1.00800           0
     10938 MEMB     76       POPC     H15C     HL       0.250000       1.00800           0
     10939 MEMB     76       POPC     C11      CTL2    -0.800000E-01   12.0110           0
     10940 MEMB     76       POPC     H11A     HAL2     0.900000E-01   1.00800           0
     10941 MEMB     76       POPC     H11B     HAL2     0.900000E-01   1.00800           0
     10942 MEMB     76       POPC     P        PL        1.50000       30.9740           0
     10943 MEMB     76       POPC     O13      O2L     -0.780000       15.9994           0
     10944 MEMB     76       POPC     O14      O2L     -0.780000       15.9994           0
     10945 MEMB     76       POPC     O12      OSLP    -0.570000       15.9994           0
     10946 MEMB     76       POPC     O11      OSLP    -0.570000       15.9994           0
     10947 MEMB     76       POPC     C1       CTL2    -0.800000E-01   12.0110           0
     10948 MEMB     76       POPC     HA       HAL2     0.900000E-01   1.00800           0
     10949 MEMB     76       POPC     HB       HAL2     0.900000E-01   1.00800           0
     10950 MEMB     76       POPC     C2       CTL1     0.170000       12.0110           0
     10951 MEMB     76       POPC     HS       HAL1     0.900000E-01   1.00800           0
     10952 MEMB     76       POPC     O21      OSL     -0.490000       15.9994           0
     10953 MEMB     76       POPC     C21      CL       0.900000       12.0110           0
     10954 MEMB     76       POPC     O22      OBL     -0.630000       15.9994           0
     10955 MEMB     76       POPC     C22      CTL2    -0.220000       12.0110           0
     10956 MEMB     76       POPC     H2R      HAL2     0.900000E-01   1.00800           0
     10957 MEMB     76       POPC     H2S      HAL2     0.900000E-01   1.00800           0
     10958 MEMB     76       POPC     C3       CTL2     0.800000E-01   12.0110           0
     10959 MEMB     76       POPC     HX       HAL2     0.900000E-01   1.00800           0
     10960 MEMB     76       POPC     HY       HAL2     0.900000E-01   1.00800           0
     10961 MEMB     76       POPC     O31      OSL     -0.490000       15.9994           0
     10962 MEMB     76       POPC     C31      CL       0.900000       12.0110           0
     10963 MEMB     76       POPC     O32      OBL     -0.630000       15.9994           0
     10964 MEMB     76       POPC     C32      CTL2    -0.220000       12.0110           0
     10965 MEMB     76       POPC     H2X      HAL2     0.900000E-01   1.00800           0
     10966 MEMB     76       POPC     H2Y      HAL2     0.900000E-01   1.00800           0
     10967 MEMB     76       POPC     C23      CTL2    -0.180000       12.0110           0
     10968 MEMB     76       POPC     H3R      HAL2     0.900000E-01   1.00800           0
     10969 MEMB     76       POPC     H3S      HAL2     0.900000E-01   1.00800           0
     10970 MEMB     76       POPC     C24      CTL2    -0.180000       12.0110           0
     10971 MEMB     76       POPC     H4R      HAL2     0.900000E-01   1.00800           0
     10972 MEMB     76       POPC     H4S      HAL2     0.900000E-01   1.00800           0
     10973 MEMB     76       POPC     C25      CTL2    -0.180000       12.0110           0
     10974 MEMB     76       POPC     H5R      HAL2     0.900000E-01   1.00800           0
     10975 MEMB     76       POPC     H5S      HAL2     0.900000E-01   1.00800           0
     10976 MEMB     76       POPC     C26      CTL2    -0.180000       12.0110           0
     10977 MEMB     76       POPC     H6R      HAL2     0.900000E-01   1.00800           0
     10978 MEMB     76       POPC     H6S      HAL2     0.900000E-01   1.00800           0
     10979 MEMB     76       POPC     C27      CTL2    -0.180000       12.0110           0
     10980 MEMB     76       POPC     H7R      HAL2     0.900000E-01   1.00800           0
     10981 MEMB     76       POPC     H7S      HAL2     0.900000E-01   1.00800           0
     10982 MEMB     76       POPC     C28      CTL2    -0.180000       12.0110           0
     10983 MEMB     76       POPC     H8R      HAL2     0.900000E-01   1.00800           0
     10984 MEMB     76       POPC     H8S      HAL2     0.900000E-01   1.00800           0
     10985 MEMB     76       POPC     C29      CEL1    -0.150000       12.0110           0
     10986 MEMB     76       POPC     H91      HEL1     0.150000       1.00800           0
     10987 MEMB     76       POPC     C210     CEL1    -0.150000       12.0110           0
     10988 MEMB     76       POPC     H101     HEL1     0.150000       1.00800           0
     10989 MEMB     76       POPC     C211     CTL2    -0.180000       12.0110           0
     10990 MEMB     76       POPC     H11R     HAL2     0.900000E-01   1.00800           0
     10991 MEMB     76       POPC     H11S     HAL2     0.900000E-01   1.00800           0
     10992 MEMB     76       POPC     C212     CTL2    -0.180000       12.0110           0
     10993 MEMB     76       POPC     H12R     HAL2     0.900000E-01   1.00800           0
     10994 MEMB     76       POPC     H12S     HAL2     0.900000E-01   1.00800           0
     10995 MEMB     76       POPC     C213     CTL2    -0.180000       12.0110           0
     10996 MEMB     76       POPC     H13R     HAL2     0.900000E-01   1.00800           0
     10997 MEMB     76       POPC     H13S     HAL2     0.900000E-01   1.00800           0
     10998 MEMB     76       POPC     C214     CTL2    -0.180000       12.0110           0
     10999 MEMB     76       POPC     H14R     HAL2     0.900000E-01   1.00800           0
     11000 MEMB     76       POPC     H14S     HAL2     0.900000E-01   1.00800           0
     11001 MEMB     76       POPC     C215     CTL2    -0.180000       12.0110           0
     11002 MEMB     76       POPC     H15R     HAL2     0.900000E-01   1.00800           0
     11003 MEMB     76       POPC     H15S     HAL2     0.900000E-01   1.00800           0
     11004 MEMB     76       POPC     C216     CTL2    -0.180000       12.0110           0
     11005 MEMB     76       POPC     H16R     HAL2     0.900000E-01   1.00800           0
     11006 MEMB     76       POPC     H16S     HAL2     0.900000E-01   1.00800           0
     11007 MEMB     76       POPC     C217     CTL2    -0.180000       12.0110           0
     11008 MEMB     76       POPC     H17R     HAL2     0.900000E-01   1.00800           0
     11009 MEMB     76       POPC     H17S     HAL2     0.900000E-01   1.00800           0
     11010 MEMB     76       POPC     C218     CTL3    -0.270000       12.0110           0
     11011 MEMB     76       POPC     H18R     HAL3     0.900000E-01   1.00800           0
     11012 MEMB     76       POPC     H18S     HAL3     0.900000E-01   1.00800           0
     11013 MEMB     76       POPC     H18T     HAL3     0.900000E-01   1.00800           0
     11014 MEMB     76       POPC     C33      CTL2    -0.180000       12.0110           0
     11015 MEMB     76       POPC     H3X      HAL2     0.900000E-01   1.00800           0
     11016 MEMB     76       POPC     H3Y      HAL2     0.900000E-01   1.00800           0
     11017 MEMB     76       POPC     C34      CTL2    -0.180000       12.0110           0
     11018 MEMB     76       POPC     H4X      HAL2     0.900000E-01   1.00800           0
     11019 MEMB     76       POPC     H4Y      HAL2     0.900000E-01   1.00800           0
     11020 MEMB     76       POPC     C35      CTL2    -0.180000       12.0110           0
     11021 MEMB     76       POPC     H5X      HAL2     0.900000E-01   1.00800           0
     11022 MEMB     76       POPC     H5Y      HAL2     0.900000E-01   1.00800           0
     11023 MEMB     76       POPC     C36      CTL2    -0.180000       12.0110           0
     11024 MEMB     76       POPC     H6X      HAL2     0.900000E-01   1.00800           0
     11025 MEMB     76       POPC     H6Y      HAL2     0.900000E-01   1.00800           0
     11026 MEMB     76       POPC     C37      CTL2    -0.180000       12.0110           0
     11027 MEMB     76       POPC     H7X      HAL2     0.900000E-01   1.00800           0
     11028 MEMB     76       POPC     H7Y      HAL2     0.900000E-01   1.00800           0
     11029 MEMB     76       POPC     C38      CTL2    -0.180000       12.0110           0
     11030 MEMB     76       POPC     H8X      HAL2     0.900000E-01   1.00800           0
     11031 MEMB     76       POPC     H8Y      HAL2     0.900000E-01   1.00800           0
     11032 MEMB     76       POPC     C39      CTL2    -0.180000       12.0110           0
     11033 MEMB     76       POPC     H9X      HAL2     0.900000E-01   1.00800           0
     11034 MEMB     76       POPC     H9Y      HAL2     0.900000E-01   1.00800           0
     11035 MEMB     76       POPC     C310     CTL2    -0.180000       12.0110           0
     11036 MEMB     76       POPC     H10X     HAL2     0.900000E-01   1.00800           0
     11037 MEMB     76       POPC     H10Y     HAL2     0.900000E-01   1.00800           0
     11038 MEMB     76       POPC     C311     CTL2    -0.180000       12.0110           0
     11039 MEMB     76       POPC     H11X     HAL2     0.900000E-01   1.00800           0
     11040 MEMB     76       POPC     H11Y     HAL2     0.900000E-01   1.00800           0
     11041 MEMB     76       POPC     C312     CTL2    -0.180000       12.0110           0
     11042 MEMB     76       POPC     H12X     HAL2     0.900000E-01   1.00800           0
     11043 MEMB     76       POPC     H12Y     HAL2     0.900000E-01   1.00800           0
     11044 MEMB     76       POPC     C313     CTL2    -0.180000       12.0110           0
     11045 MEMB     76       POPC     H13X     HAL2     0.900000E-01   1.00800           0
     11046 MEMB     76       POPC     H13Y     HAL2     0.900000E-01   1.00800           0
     11047 MEMB     76       POPC     C314     CTL2    -0.180000       12.0110           0
     11048 MEMB     76       POPC     H14X     HAL2     0.900000E-01   1.00800           0
     11049 MEMB     76       POPC     H14Y     HAL2     0.900000E-01   1.00800           0
     11050 MEMB     76       POPC     C315     CTL2    -0.180000       12.0110           0
     11051 MEMB     76       POPC     H15X     HAL2     0.900000E-01   1.00800           0
     11052 MEMB     76       POPC     H15Y     HAL2     0.900000E-01   1.00800           0
     11053 MEMB     76       POPC     C316     CTL3    -0.270000       12.0110           0
     11054 MEMB     76       POPC     H16X     HAL3     0.900000E-01   1.00800           0
     11055 MEMB     76       POPC     H16Y     HAL3     0.900000E-01   1.00800           0
     11056 MEMB     76       POPC     H16Z     HAL3     0.900000E-01   1.00800           0
     11057 MEMB     77       POPC     N        NTL     -0.600000       14.0070           0
     11058 MEMB     77       POPC     C12      CTL2    -0.100000       12.0110           0
     11059 MEMB     77       POPC     H12A     HL       0.250000       1.00800           0
     11060 MEMB     77       POPC     H12B     HL       0.250000       1.00800           0
     11061 MEMB     77       POPC     C13      CTL5    -0.350000       12.0110           0
     11062 MEMB     77       POPC     H13A     HL       0.250000       1.00800           0
     11063 MEMB     77       POPC     H13B     HL       0.250000       1.00800           0
     11064 MEMB     77       POPC     H13C     HL       0.250000       1.00800           0
     11065 MEMB     77       POPC     C14      CTL5    -0.350000       12.0110           0
     11066 MEMB     77       POPC     H14A     HL       0.250000       1.00800           0
     11067 MEMB     77       POPC     H14B     HL       0.250000       1.00800           0
     11068 MEMB     77       POPC     H14C     HL       0.250000       1.00800           0
     11069 MEMB     77       POPC     C15      CTL5    -0.350000       12.0110           0
     11070 MEMB     77       POPC     H15A     HL       0.250000       1.00800           0
     11071 MEMB     77       POPC     H15B     HL       0.250000       1.00800           0
     11072 MEMB     77       POPC     H15C     HL       0.250000       1.00800           0
     11073 MEMB     77       POPC     C11      CTL2    -0.800000E-01   12.0110           0
     11074 MEMB     77       POPC     H11A     HAL2     0.900000E-01   1.00800           0
     11075 MEMB     77       POPC     H11B     HAL2     0.900000E-01   1.00800           0
     11076 MEMB     77       POPC     P        PL        1.50000       30.9740           0
     11077 MEMB     77       POPC     O13      O2L     -0.780000       15.9994           0
     11078 MEMB     77       POPC     O14      O2L     -0.780000       15.9994           0
     11079 MEMB     77       POPC     O12      OSLP    -0.570000       15.9994           0
     11080 MEMB     77       POPC     O11      OSLP    -0.570000       15.9994           0
     11081 MEMB     77       POPC     C1       CTL2    -0.800000E-01   12.0110           0
     11082 MEMB     77       POPC     HA       HAL2     0.900000E-01   1.00800           0
     11083 MEMB     77       POPC     HB       HAL2     0.900000E-01   1.00800           0
     11084 MEMB     77       POPC     C2       CTL1     0.170000       12.0110           0
     11085 MEMB     77       POPC     HS       HAL1     0.900000E-01   1.00800           0
     11086 MEMB     77       POPC     O21      OSL     -0.490000       15.9994           0
     11087 MEMB     77       POPC     C21      CL       0.900000       12.0110           0
     11088 MEMB     77       POPC     O22      OBL     -0.630000       15.9994           0
     11089 MEMB     77       POPC     C22      CTL2    -0.220000       12.0110           0
     11090 MEMB     77       POPC     H2R      HAL2     0.900000E-01   1.00800           0
     11091 MEMB     77       POPC     H2S      HAL2     0.900000E-01   1.00800           0
     11092 MEMB     77       POPC     C3       CTL2     0.800000E-01   12.0110           0
     11093 MEMB     77       POPC     HX       HAL2     0.900000E-01   1.00800           0
     11094 MEMB     77       POPC     HY       HAL2     0.900000E-01   1.00800           0
     11095 MEMB     77       POPC     O31      OSL     -0.490000       15.9994           0
     11096 MEMB     77       POPC     C31      CL       0.900000       12.0110           0
     11097 MEMB     77       POPC     O32      OBL     -0.630000       15.9994           0
     11098 MEMB     77       POPC     C32      CTL2    -0.220000       12.0110           0
     11099 MEMB     77       POPC     H2X      HAL2     0.900000E-01   1.00800           0
     11100 MEMB     77       POPC     H2Y      HAL2     0.900000E-01   1.00800           0
     11101 MEMB     77       POPC     C23      CTL2    -0.180000       12.0110           0
     11102 MEMB     77       POPC     H3R      HAL2     0.900000E-01   1.00800           0
     11103 MEMB     77       POPC     H3S      HAL2     0.900000E-01   1.00800           0
     11104 MEMB     77       POPC     C24      CTL2    -0.180000       12.0110           0
     11105 MEMB     77       POPC     H4R      HAL2     0.900000E-01   1.00800           0
     11106 MEMB     77       POPC     H4S      HAL2     0.900000E-01   1.00800           0
     11107 MEMB     77       POPC     C25      CTL2    -0.180000       12.0110           0
     11108 MEMB     77       POPC     H5R      HAL2     0.900000E-01   1.00800           0
     11109 MEMB     77       POPC     H5S      HAL2     0.900000E-01   1.00800           0
     11110 MEMB     77       POPC     C26      CTL2    -0.180000       12.0110           0
     11111 MEMB     77       POPC     H6R      HAL2     0.900000E-01   1.00800           0
     11112 MEMB     77       POPC     H6S      HAL2     0.900000E-01   1.00800           0
     11113 MEMB     77       POPC     C27      CTL2    -0.180000       12.0110           0
     11114 MEMB     77       POPC     H7R      HAL2     0.900000E-01   1.00800           0
     11115 MEMB     77       POPC     H7S      HAL2     0.900000E-01   1.00800           0
     11116 MEMB     77       POPC     C28      CTL2    -0.180000       12.0110           0
     11117 MEMB     77       POPC     H8R      HAL2     0.900000E-01   1.00800           0
     11118 MEMB     77       POPC     H8S      HAL2     0.900000E-01   1.00800           0
     11119 MEMB     77       POPC     C29      CEL1    -0.150000       12.0110           0
     11120 MEMB     77       POPC     H91      HEL1     0.150000       1.00800           0
     11121 MEMB     77       POPC     C210     CEL1    -0.150000       12.0110           0
     11122 MEMB     77       POPC     H101     HEL1     0.150000       1.00800           0
     11123 MEMB     77       POPC     C211     CTL2    -0.180000       12.0110           0
     11124 MEMB     77       POPC     H11R     HAL2     0.900000E-01   1.00800           0
     11125 MEMB     77       POPC     H11S     HAL2     0.900000E-01   1.00800           0
     11126 MEMB     77       POPC     C212     CTL2    -0.180000       12.0110           0
     11127 MEMB     77       POPC     H12R     HAL2     0.900000E-01   1.00800           0
     11128 MEMB     77       POPC     H12S     HAL2     0.900000E-01   1.00800           0
     11129 MEMB     77       POPC     C213     CTL2    -0.180000       12.0110           0
     11130 MEMB     77       POPC     H13R     HAL2     0.900000E-01   1.00800           0
     11131 MEMB     77       POPC     H13S     HAL2     0.900000E-01   1.00800           0
     11132 MEMB     77       POPC     C214     CTL2    -0.180000       12.0110           0
     11133 MEMB     77       POPC     H14R     HAL2     0.900000E-01   1.00800           0
     11134 MEMB     77       POPC     H14S     HAL2     0.900000E-01   1.00800           0
     11135 MEMB     77       POPC     C215     CTL2    -0.180000       12.0110           0
     11136 MEMB     77       POPC     H15R     HAL2     0.900000E-01   1.00800           0
     11137 MEMB     77       POPC     H15S     HAL2     0.900000E-01   1.00800           0
     11138 MEMB     77       POPC     C216     CTL2    -0.180000       12.0110           0
     11139 MEMB     77       POPC     H16R     HAL2     0.900000E-01   1.00800           0
     11140 MEMB     77       POPC     H16S     HAL2     0.900000E-01   1.00800           0
     11141 MEMB     77       POPC     C217     CTL2    -0.180000       12.0110           0
     11142 MEMB     77       POPC     H17R     HAL2     0.900000E-01   1.00800           0
     11143 MEMB     77       POPC     H17S     HAL2     0.900000E-01   1.00800           0
     11144 MEMB     77       POPC     C218     CTL3    -0.270000       12.0110           0
     11145 MEMB     77       POPC     H18R     HAL3     0.900000E-01   1.00800           0
     11146 MEMB     77       POPC     H18S     HAL3     0.900000E-01   1.00800           0
     11147 MEMB     77       POPC     H18T     HAL3     0.900000E-01   1.00800           0
     11148 MEMB     77       POPC     C33      CTL2    -0.180000       12.0110           0
     11149 MEMB     77       POPC     H3X      HAL2     0.900000E-01   1.00800           0
     11150 MEMB     77       POPC     H3Y      HAL2     0.900000E-01   1.00800           0
     11151 MEMB     77       POPC     C34      CTL2    -0.180000       12.0110           0
     11152 MEMB     77       POPC     H4X      HAL2     0.900000E-01   1.00800           0
     11153 MEMB     77       POPC     H4Y      HAL2     0.900000E-01   1.00800           0
     11154 MEMB     77       POPC     C35      CTL2    -0.180000       12.0110           0
     11155 MEMB     77       POPC     H5X      HAL2     0.900000E-01   1.00800           0
     11156 MEMB     77       POPC     H5Y      HAL2     0.900000E-01   1.00800           0
     11157 MEMB     77       POPC     C36      CTL2    -0.180000       12.0110           0
     11158 MEMB     77       POPC     H6X      HAL2     0.900000E-01   1.00800           0
     11159 MEMB     77       POPC     H6Y      HAL2     0.900000E-01   1.00800           0
     11160 MEMB     77       POPC     C37      CTL2    -0.180000       12.0110           0
     11161 MEMB     77       POPC     H7X      HAL2     0.900000E-01   1.00800           0
     11162 MEMB     77       POPC     H7Y      HAL2     0.900000E-01   1.00800           0
     11163 MEMB     77       POPC     C38      CTL2    -0.180000       12.0110           0
     11164 MEMB     77       POPC     H8X      HAL2     0.900000E-01   1.00800           0
     11165 MEMB     77       POPC     H8Y      HAL2     0.900000E-01   1.00800           0
     11166 MEMB     77       POPC     C39      CTL2    -0.180000       12.0110           0
     11167 MEMB     77       POPC     H9X      HAL2     0.900000E-01   1.00800           0
     11168 MEMB     77       POPC     H9Y      HAL2     0.900000E-01   1.00800           0
     11169 MEMB     77       POPC     C310     CTL2    -0.180000       12.0110           0
     11170 MEMB     77       POPC     H10X     HAL2     0.900000E-01   1.00800           0
     11171 MEMB     77       POPC     H10Y     HAL2     0.900000E-01   1.00800           0
     11172 MEMB     77       POPC     C311     CTL2    -0.180000       12.0110           0
     11173 MEMB     77       POPC     H11X     HAL2     0.900000E-01   1.00800           0
     11174 MEMB     77       POPC     H11Y     HAL2     0.900000E-01   1.00800           0
     11175 MEMB     77       POPC     C312     CTL2    -0.180000       12.0110           0
     11176 MEMB     77       POPC     H12X     HAL2     0.900000E-01   1.00800           0
     11177 MEMB     77       POPC     H12Y     HAL2     0.900000E-01   1.00800           0
     11178 MEMB     77       POPC     C313     CTL2    -0.180000       12.0110           0
     11179 MEMB     77       POPC     H13X     HAL2     0.900000E-01   1.00800           0
     11180 MEMB     77       POPC     H13Y     HAL2     0.900000E-01   1.00800           0
     11181 MEMB     77       POPC     C314     CTL2    -0.180000       12.0110           0
     11182 MEMB     77       POPC     H14X     HAL2     0.900000E-01   1.00800           0
     11183 MEMB     77       POPC     H14Y     HAL2     0.900000E-01   1.00800           0
     11184 MEMB     77       POPC     C315     CTL2    -0.180000       12.0110           0
     11185 MEMB     77       POPC     H15X     HAL2     0.900000E-01   1.00800           0
     11186 MEMB     77       POPC     H15Y     HAL2     0.900000E-01   1.00800           0
     11187 MEMB     77       POPC     C316     CTL3    -0.270000       12.0110           0
     11188 MEMB     77       POPC     H16X     HAL3     0.900000E-01   1.00800           0
     11189 MEMB     77       POPC     H16Y     HAL3     0.900000E-01   1.00800           0
     11190 MEMB     77       POPC     H16Z     HAL3     0.900000E-01   1.00800           0
     11191 MEMB     78       POPC     N        NTL     -0.600000       14.0070           0
     11192 MEMB     78       POPC     C12      CTL2    -0.100000       12.0110           0
     11193 MEMB     78       POPC     H12A     HL       0.250000       1.00800           0
     11194 MEMB     78       POPC     H12B     HL       0.250000       1.00800           0
     11195 MEMB     78       POPC     C13      CTL5    -0.350000       12.0110           0
     11196 MEMB     78       POPC     H13A     HL       0.250000       1.00800           0
     11197 MEMB     78       POPC     H13B     HL       0.250000       1.00800           0
     11198 MEMB     78       POPC     H13C     HL       0.250000       1.00800           0
     11199 MEMB     78       POPC     C14      CTL5    -0.350000       12.0110           0
     11200 MEMB     78       POPC     H14A     HL       0.250000       1.00800           0
     11201 MEMB     78       POPC     H14B     HL       0.250000       1.00800           0
     11202 MEMB     78       POPC     H14C     HL       0.250000       1.00800           0
     11203 MEMB     78       POPC     C15      CTL5    -0.350000       12.0110           0
     11204 MEMB     78       POPC     H15A     HL       0.250000       1.00800           0
     11205 MEMB     78       POPC     H15B     HL       0.250000       1.00800           0
     11206 MEMB     78       POPC     H15C     HL       0.250000       1.00800           0
     11207 MEMB     78       POPC     C11      CTL2    -0.800000E-01   12.0110           0
     11208 MEMB     78       POPC     H11A     HAL2     0.900000E-01   1.00800           0
     11209 MEMB     78       POPC     H11B     HAL2     0.900000E-01   1.00800           0
     11210 MEMB     78       POPC     P        PL        1.50000       30.9740           0
     11211 MEMB     78       POPC     O13      O2L     -0.780000       15.9994           0
     11212 MEMB     78       POPC     O14      O2L     -0.780000       15.9994           0
     11213 MEMB     78       POPC     O12      OSLP    -0.570000       15.9994           0
     11214 MEMB     78       POPC     O11      OSLP    -0.570000       15.9994           0
     11215 MEMB     78       POPC     C1       CTL2    -0.800000E-01   12.0110           0
     11216 MEMB     78       POPC     HA       HAL2     0.900000E-01   1.00800           0
     11217 MEMB     78       POPC     HB       HAL2     0.900000E-01   1.00800           0
     11218 MEMB     78       POPC     C2       CTL1     0.170000       12.0110           0
     11219 MEMB     78       POPC     HS       HAL1     0.900000E-01   1.00800           0
     11220 MEMB     78       POPC     O21      OSL     -0.490000       15.9994           0
     11221 MEMB     78       POPC     C21      CL       0.900000       12.0110           0
     11222 MEMB     78       POPC     O22      OBL     -0.630000       15.9994           0
     11223 MEMB     78       POPC     C22      CTL2    -0.220000       12.0110           0
     11224 MEMB     78       POPC     H2R      HAL2     0.900000E-01   1.00800           0
     11225 MEMB     78       POPC     H2S      HAL2     0.900000E-01   1.00800           0
     11226 MEMB     78       POPC     C3       CTL2     0.800000E-01   12.0110           0
     11227 MEMB     78       POPC     HX       HAL2     0.900000E-01   1.00800           0
     11228 MEMB     78       POPC     HY       HAL2     0.900000E-01   1.00800           0
     11229 MEMB     78       POPC     O31      OSL     -0.490000       15.9994           0
     11230 MEMB     78       POPC     C31      CL       0.900000       12.0110           0
     11231 MEMB     78       POPC     O32      OBL     -0.630000       15.9994           0
     11232 MEMB     78       POPC     C32      CTL2    -0.220000       12.0110           0
     11233 MEMB     78       POPC     H2X      HAL2     0.900000E-01   1.00800           0
     11234 MEMB     78       POPC     H2Y      HAL2     0.900000E-01   1.00800           0
     11235 MEMB     78       POPC     C23      CTL2    -0.180000       12.0110           0
     11236 MEMB     78       POPC     H3R      HAL2     0.900000E-01   1.00800           0
     11237 MEMB     78       POPC     H3S      HAL2     0.900000E-01   1.00800           0
     11238 MEMB     78       POPC     C24      CTL2    -0.180000       12.0110           0
     11239 MEMB     78       POPC     H4R      HAL2     0.900000E-01   1.00800           0
     11240 MEMB     78       POPC     H4S      HAL2     0.900000E-01   1.00800           0
     11241 MEMB     78       POPC     C25      CTL2    -0.180000       12.0110           0
     11242 MEMB     78       POPC     H5R      HAL2     0.900000E-01   1.00800           0
     11243 MEMB     78       POPC     H5S      HAL2     0.900000E-01   1.00800           0
     11244 MEMB     78       POPC     C26      CTL2    -0.180000       12.0110           0
     11245 MEMB     78       POPC     H6R      HAL2     0.900000E-01   1.00800           0
     11246 MEMB     78       POPC     H6S      HAL2     0.900000E-01   1.00800           0
     11247 MEMB     78       POPC     C27      CTL2    -0.180000       12.0110           0
     11248 MEMB     78       POPC     H7R      HAL2     0.900000E-01   1.00800           0
     11249 MEMB     78       POPC     H7S      HAL2     0.900000E-01   1.00800           0
     11250 MEMB     78       POPC     C28      CTL2    -0.180000       12.0110           0
     11251 MEMB     78       POPC     H8R      HAL2     0.900000E-01   1.00800           0
     11252 MEMB     78       POPC     H8S      HAL2     0.900000E-01   1.00800           0
     11253 MEMB     78       POPC     C29      CEL1    -0.150000       12.0110           0
     11254 MEMB     78       POPC     H91      HEL1     0.150000       1.00800           0
     11255 MEMB     78       POPC     C210     CEL1    -0.150000       12.0110           0
     11256 MEMB     78       POPC     H101     HEL1     0.150000       1.00800           0
     11257 MEMB     78       POPC     C211     CTL2    -0.180000       12.0110           0
     11258 MEMB     78       POPC     H11R     HAL2     0.900000E-01   1.00800           0
     11259 MEMB     78       POPC     H11S     HAL2     0.900000E-01   1.00800           0
     11260 MEMB     78       POPC     C212     CTL2    -0.180000       12.0110           0
     11261 MEMB     78       POPC     H12R     HAL2     0.900000E-01   1.00800           0
     11262 MEMB     78       POPC     H12S     HAL2     0.900000E-01   1.00800           0
     11263 MEMB     78       POPC     C213     CTL2    -0.180000       12.0110           0
     11264 MEMB     78       POPC     H13R     HAL2     0.900000E-01   1.00800           0
     11265 MEMB     78       POPC     H13S     HAL2     0.900000E-01   1.00800           0
     11266 MEMB     78       POPC     C214     CTL2    -0.180000       12.0110           0
     11267 MEMB     78       POPC     H14R     HAL2     0.900000E-01   1.00800           0
     11268 MEMB     78       POPC     H14S     HAL2     0.900000E-01   1.00800           0
     11269 MEMB     78       POPC     C215     CTL2    -0.180000       12.0110           0
     11270 MEMB     78       POPC     H15R     HAL2     0.900000E-01   1.00800           0
     11271 MEMB     78       POPC     H15S     HAL2     0.900000E-01   1.00800           0
     11272 MEMB     78       POPC     C216     CTL2    -0.180000       12.0110           0
     11273 MEMB     78       POPC     H16R     HAL2     0.900000E-01   1.00800           0
     11274 MEMB     78       POPC     H16S     HAL2     0.900000E-01   1.00800           0
     11275 MEMB     78       POPC     C217     CTL2    -0.180000       12.0110           0
     11276 MEMB     78       POPC     H17R     HAL2     0.900000E-01   1.00800           0
     11277 MEMB     78       POPC     H17S     HAL2     0.900000E-01   1.00800           0
     11278 MEMB     78       POPC     C218     CTL3    -0.270000       12.0110           0
     11279 MEMB     78       POPC     H18R     HAL3     0.900000E-01   1.00800           0
     11280 MEMB     78       POPC     H18S     HAL3     0.900000E-01   1.00800           0
     11281 MEMB     78       POPC     H18T     HAL3     0.900000E-01   1.00800           0
     11282 MEMB     78       POPC     C33      CTL2    -0.180000       12.0110           0
     11283 MEMB     78       POPC     H3X      HAL2     0.900000E-01   1.00800           0
     11284 MEMB     78       POPC     H3Y      HAL2     0.900000E-01   1.00800           0
     11285 MEMB     78       POPC     C34      CTL2    -0.180000       12.0110           0
     11286 MEMB     78       POPC     H4X      HAL2     0.900000E-01   1.00800           0
     11287 MEMB     78       POPC     H4Y      HAL2     0.900000E-01   1.00800           0
     11288 MEMB     78       POPC     C35      CTL2    -0.180000       12.0110           0
     11289 MEMB     78       POPC     H5X      HAL2     0.900000E-01   1.00800           0
     11290 MEMB     78       POPC     H5Y      HAL2     0.900000E-01   1.00800           0
     11291 MEMB     78       POPC     C36      CTL2    -0.180000       12.0110           0
     11292 MEMB     78       POPC     H6X      HAL2     0.900000E-01   1.00800           0
     11293 MEMB     78       POPC     H6Y      HAL2     0.900000E-01   1.00800           0
     11294 MEMB     78       POPC     C37      CTL2    -0.180000       12.0110           0
     11295 MEMB     78       POPC     H7X      HAL2     0.900000E-01   1.00800           0
     11296 MEMB     78       POPC     H7Y      HAL2     0.900000E-01   1.00800           0
     11297 MEMB     78       POPC     C38      CTL2    -0.180000       12.0110           0
     11298 MEMB     78       POPC     H8X      HAL2     0.900000E-01   1.00800           0
     11299 MEMB     78       POPC     H8Y      HAL2     0.900000E-01   1.00800           0
     11300 MEMB     78       POPC     C39      CTL2    -0.180000       12.0110           0
     11301 MEMB     78       POPC     H9X      HAL2     0.900000E-01   1.00800           0
     11302 MEMB     78       POPC     H9Y      HAL2     0.900000E-01   1.00800           0
     11303 MEMB     78       POPC     C310     CTL2    -0.180000       12.0110           0
     11304 MEMB     78       POPC     H10X     HAL2     0.900000E-01   1.00800           0
     11305 MEMB     78       POPC     H10Y     HAL2     0.900000E-01   1.00800           0
     11306 MEMB     78       POPC     C311     CTL2    -0.180000       12.0110           0
     11307 MEMB     78       POPC     H11X     HAL2     0.900000E-01   1.00800           0
     11308 MEMB     78       POPC     H11Y     HAL2     0.900000E-01   1.00800           0
     11309 MEMB     78       POPC     C312     CTL2    -0.180000       12.0110           0
     11310 MEMB     78       POPC     H12X     HAL2     0.900000E-01   1.00800           0
     11311 MEMB     78       POPC     H12Y     HAL2     0.900000E-01   1.00800           0
     11312 MEMB     78       POPC     C313     CTL2    -0.180000       12.0110           0
     11313 MEMB     78       POPC     H13X     HAL2     0.900000E-01   1.00800           0
     11314 MEMB     78       POPC     H13Y     HAL2     0.900000E-01   1.00800           0
     11315 MEMB     78       POPC     C314     CTL2    -0.180000       12.0110           0
     11316 MEMB     78       POPC     H14X     HAL2     0.900000E-01   1.00800           0
     11317 MEMB     78       POPC     H14Y     HAL2     0.900000E-01   1.00800           0
     11318 MEMB     78       POPC     C315     CTL2    -0.180000       12.0110           0
     11319 MEMB     78       POPC     H15X     HAL2     0.900000E-01   1.00800           0
     11320 MEMB     78       POPC     H15Y     HAL2     0.900000E-01   1.00800           0
     11321 MEMB     78       POPC     C316     CTL3    -0.270000       12.0110           0
     11322 MEMB     78       POPC     H16X     HAL3     0.900000E-01   1.00800           0
     11323 MEMB     78       POPC     H16Y     HAL3     0.900000E-01   1.00800           0
     11324 MEMB     78       POPC     H16Z     HAL3     0.900000E-01   1.00800           0
     11325 MEMB     79       POPC     N        NTL     -0.600000       14.0070           0
     11326 MEMB     79       POPC     C12      CTL2    -0.100000       12.0110           0
     11327 MEMB     79       POPC     H12A     HL       0.250000       1.00800           0
     11328 MEMB     79       POPC     H12B     HL       0.250000       1.00800           0
     11329 MEMB     79       POPC     C13      CTL5    -0.350000       12.0110           0
     11330 MEMB     79       POPC     H13A     HL       0.250000       1.00800           0
     11331 MEMB     79       POPC     H13B     HL       0.250000       1.00800           0
     11332 MEMB     79       POPC     H13C     HL       0.250000       1.00800           0
     11333 MEMB     79       POPC     C14      CTL5    -0.350000       12.0110           0
     11334 MEMB     79       POPC     H14A     HL       0.250000       1.00800           0
     11335 MEMB     79       POPC     H14B     HL       0.250000       1.00800           0
     11336 MEMB     79       POPC     H14C     HL       0.250000       1.00800           0
     11337 MEMB     79       POPC     C15      CTL5    -0.350000       12.0110           0
     11338 MEMB     79       POPC     H15A     HL       0.250000       1.00800           0
     11339 MEMB     79       POPC     H15B     HL       0.250000       1.00800           0
     11340 MEMB     79       POPC     H15C     HL       0.250000       1.00800           0
     11341 MEMB     79       POPC     C11      CTL2    -0.800000E-01   12.0110           0
     11342 MEMB     79       POPC     H11A     HAL2     0.900000E-01   1.00800           0
     11343 MEMB     79       POPC     H11B     HAL2     0.900000E-01   1.00800           0
     11344 MEMB     79       POPC     P        PL        1.50000       30.9740           0
     11345 MEMB     79       POPC     O13      O2L     -0.780000       15.9994           0
     11346 MEMB     79       POPC     O14      O2L     -0.780000       15.9994           0
     11347 MEMB     79       POPC     O12      OSLP    -0.570000       15.9994           0
     11348 MEMB     79       POPC     O11      OSLP    -0.570000       15.9994           0
     11349 MEMB     79       POPC     C1       CTL2    -0.800000E-01   12.0110           0
     11350 MEMB     79       POPC     HA       HAL2     0.900000E-01   1.00800           0
     11351 MEMB     79       POPC     HB       HAL2     0.900000E-01   1.00800           0
     11352 MEMB     79       POPC     C2       CTL1     0.170000       12.0110           0
     11353 MEMB     79       POPC     HS       HAL1     0.900000E-01   1.00800           0
     11354 MEMB     79       POPC     O21      OSL     -0.490000       15.9994           0
     11355 MEMB     79       POPC     C21      CL       0.900000       12.0110           0
     11356 MEMB     79       POPC     O22      OBL     -0.630000       15.9994           0
     11357 MEMB     79       POPC     C22      CTL2    -0.220000       12.0110           0
     11358 MEMB     79       POPC     H2R      HAL2     0.900000E-01   1.00800           0
     11359 MEMB     79       POPC     H2S      HAL2     0.900000E-01   1.00800           0
     11360 MEMB     79       POPC     C3       CTL2     0.800000E-01   12.0110           0
     11361 MEMB     79       POPC     HX       HAL2     0.900000E-01   1.00800           0
     11362 MEMB     79       POPC     HY       HAL2     0.900000E-01   1.00800           0
     11363 MEMB     79       POPC     O31      OSL     -0.490000       15.9994           0
     11364 MEMB     79       POPC     C31      CL       0.900000       12.0110           0
     11365 MEMB     79       POPC     O32      OBL     -0.630000       15.9994           0
     11366 MEMB     79       POPC     C32      CTL2    -0.220000       12.0110           0
     11367 MEMB     79       POPC     H2X      HAL2     0.900000E-01   1.00800           0
     11368 MEMB     79       POPC     H2Y      HAL2     0.900000E-01   1.00800           0
     11369 MEMB     79       POPC     C23      CTL2    -0.180000       12.0110           0
     11370 MEMB     79       POPC     H3R      HAL2     0.900000E-01   1.00800           0
     11371 MEMB     79       POPC     H3S      HAL2     0.900000E-01   1.00800           0
     11372 MEMB     79       POPC     C24      CTL2    -0.180000       12.0110           0
     11373 MEMB     79       POPC     H4R      HAL2     0.900000E-01   1.00800           0
     11374 MEMB     79       POPC     H4S      HAL2     0.900000E-01   1.00800           0
     11375 MEMB     79       POPC     C25      CTL2    -0.180000       12.0110           0
     11376 MEMB     79       POPC     H5R      HAL2     0.900000E-01   1.00800           0
     11377 MEMB     79       POPC     H5S      HAL2     0.900000E-01   1.00800           0
     11378 MEMB     79       POPC     C26      CTL2    -0.180000       12.0110           0
     11379 MEMB     79       POPC     H6R      HAL2     0.900000E-01   1.00800           0
     11380 MEMB     79       POPC     H6S      HAL2     0.900000E-01   1.00800           0
     11381 MEMB     79       POPC     C27      CTL2    -0.180000       12.0110           0
     11382 MEMB     79       POPC     H7R      HAL2     0.900000E-01   1.00800           0
     11383 MEMB     79       POPC     H7S      HAL2     0.900000E-01   1.00800           0
     11384 MEMB     79       POPC     C28      CTL2    -0.180000       12.0110           0
     11385 MEMB     79       POPC     H8R      HAL2     0.900000E-01   1.00800           0
     11386 MEMB     79       POPC     H8S      HAL2     0.900000E-01   1.00800           0
     11387 MEMB     79       POPC     C29      CEL1    -0.150000       12.0110           0
     11388 MEMB     79       POPC     H91      HEL1     0.150000       1.00800           0
     11389 MEMB     79       POPC     C210     CEL1    -0.150000       12.0110           0
     11390 MEMB     79       POPC     H101     HEL1     0.150000       1.00800           0
     11391 MEMB     79       POPC     C211     CTL2    -0.180000       12.0110           0
     11392 MEMB     79       POPC     H11R     HAL2     0.900000E-01   1.00800           0
     11393 MEMB     79       POPC     H11S     HAL2     0.900000E-01   1.00800           0
     11394 MEMB     79       POPC     C212     CTL2    -0.180000       12.0110           0
     11395 MEMB     79       POPC     H12R     HAL2     0.900000E-01   1.00800           0
     11396 MEMB     79       POPC     H12S     HAL2     0.900000E-01   1.00800           0
     11397 MEMB     79       POPC     C213     CTL2    -0.180000       12.0110           0
     11398 MEMB     79       POPC     H13R     HAL2     0.900000E-01   1.00800           0
     11399 MEMB     79       POPC     H13S     HAL2     0.900000E-01   1.00800           0
     11400 MEMB     79       POPC     C214     CTL2    -0.180000       12.0110           0
     11401 MEMB     79       POPC     H14R     HAL2     0.900000E-01   1.00800           0
     11402 MEMB     79       POPC     H14S     HAL2     0.900000E-01   1.00800           0
     11403 MEMB     79       POPC     C215     CTL2    -0.180000       12.0110           0
     11404 MEMB     79       POPC     H15R     HAL2     0.900000E-01   1.00800           0
     11405 MEMB     79       POPC     H15S     HAL2     0.900000E-01   1.00800           0
     11406 MEMB     79       POPC     C216     CTL2    -0.180000       12.0110           0
     11407 MEMB     79       POPC     H16R     HAL2     0.900000E-01   1.00800           0
     11408 MEMB     79       POPC     H16S     HAL2     0.900000E-01   1.00800           0
     11409 MEMB     79       POPC     C217     CTL2    -0.180000       12.0110           0
     11410 MEMB     79       POPC     H17R     HAL2     0.900000E-01   1.00800           0
     11411 MEMB     79       POPC     H17S     HAL2     0.900000E-01   1.00800           0
     11412 MEMB     79       POPC     C218     CTL3    -0.270000       12.0110           0
     11413 MEMB     79       POPC     H18R     HAL3     0.900000E-01   1.00800           0
     11414 MEMB     79       POPC     H18S     HAL3     0.900000E-01   1.00800           0
     11415 MEMB     79       POPC     H18T     HAL3     0.900000E-01   1.00800           0
     11416 MEMB     79       POPC     C33      CTL2    -0.180000       12.0110           0
     11417 MEMB     79       POPC     H3X      HAL2     0.900000E-01   1.00800           0
     11418 MEMB     79       POPC     H3Y      HAL2     0.900000E-01   1.00800           0
     11419 MEMB     79       POPC     C34      CTL2    -0.180000       12.0110           0
     11420 MEMB     79       POPC     H4X      HAL2     0.900000E-01   1.00800           0
     11421 MEMB     79       POPC     H4Y      HAL2     0.900000E-01   1.00800           0
     11422 MEMB     79       POPC     C35      CTL2    -0.180000       12.0110           0
     11423 MEMB     79       POPC     H5X      HAL2     0.900000E-01   1.00800           0
     11424 MEMB     79       POPC     H5Y      HAL2     0.900000E-01   1.00800           0
     11425 MEMB     79       POPC     C36      CTL2    -0.180000       12.0110           0
     11426 MEMB     79       POPC     H6X      HAL2     0.900000E-01   1.00800           0
     11427 MEMB     79       POPC     H6Y      HAL2     0.900000E-01   1.00800           0
     11428 MEMB     79       POPC     C37      CTL2    -0.180000       12.0110           0
     11429 MEMB     79       POPC     H7X      HAL2     0.900000E-01   1.00800           0
     11430 MEMB     79       POPC     H7Y      HAL2     0.900000E-01   1.00800           0
     11431 MEMB     79       POPC     C38      CTL2    -0.180000       12.0110           0
     11432 MEMB     79       POPC     H8X      HAL2     0.900000E-01   1.00800           0
     11433 MEMB     79       POPC     H8Y      HAL2     0.900000E-01   1.00800           0
     11434 MEMB     79       POPC     C39      CTL2    -0.180000       12.0110           0
     11435 MEMB     79       POPC     H9X      HAL2     0.900000E-01   1.00800           0
     11436 MEMB     79       POPC     H9Y      HAL2     0.900000E-01   1.00800           0
     11437 MEMB     79       POPC     C310     CTL2    -0.180000       12.0110           0
     11438 MEMB     79       POPC     H10X     HAL2     0.900000E-01   1.00800           0
     11439 MEMB     79       POPC     H10Y     HAL2     0.900000E-01   1.00800           0
     11440 MEMB     79       POPC     C311     CTL2    -0.180000       12.0110           0
     11441 MEMB     79       POPC     H11X     HAL2     0.900000E-01   1.00800           0
     11442 MEMB     79       POPC     H11Y     HAL2     0.900000E-01   1.00800           0
     11443 MEMB     79       POPC     C312     CTL2    -0.180000       12.0110           0
     11444 MEMB     79       POPC     H12X     HAL2     0.900000E-01   1.00800           0
     11445 MEMB     79       POPC     H12Y     HAL2     0.900000E-01   1.00800           0
     11446 MEMB     79       POPC     C313     CTL2    -0.180000       12.0110           0
     11447 MEMB     79       POPC     H13X     HAL2     0.900000E-01   1.00800           0
     11448 MEMB     79       POPC     H13Y     HAL2     0.900000E-01   1.00800           0
     11449 MEMB     79       POPC     C314     CTL2    -0.180000       12.0110           0
     11450 MEMB     79       POPC     H14X     HAL2     0.900000E-01   1.00800           0
     11451 MEMB     79       POPC     H14Y     HAL2     0.900000E-01   1.00800           0
     11452 MEMB     79       POPC     C315     CTL2    -0.180000       12.0110           0
     11453 MEMB     79       POPC     H15X     HAL2     0.900000E-01   1.00800           0
     11454 MEMB     79       POPC     H15Y     HAL2     0.900000E-01   1.00800           0
     11455 MEMB     79       POPC     C316     CTL3    -0.270000       12.0110           0
     11456 MEMB     79       POPC     H16X     HAL3     0.900000E-01   1.00800           0
     11457 MEMB     79       POPC     H16Y     HAL3     0.900000E-01   1.00800           0
     11458 MEMB     79       POPC     H16Z     HAL3     0.900000E-01   1.00800           0
     11459 MEMB     80       POPC     N        NTL     -0.600000       14.0070           0
     11460 MEMB     80       POPC     C12      CTL2    -0.100000       12.0110           0
     11461 MEMB     80       POPC     H12A     HL       0.250000       1.00800           0
     11462 MEMB     80       POPC     H12B     HL       0.250000       1.00800           0
     11463 MEMB     80       POPC     C13      CTL5    -0.350000       12.0110           0
     11464 MEMB     80       POPC     H13A     HL       0.250000       1.00800           0
     11465 MEMB     80       POPC     H13B     HL       0.250000       1.00800           0
     11466 MEMB     80       POPC     H13C     HL       0.250000       1.00800           0
     11467 MEMB     80       POPC     C14      CTL5    -0.350000       12.0110           0
     11468 MEMB     80       POPC     H14A     HL       0.250000       1.00800           0
     11469 MEMB     80       POPC     H14B     HL       0.250000       1.00800           0
     11470 MEMB     80       POPC     H14C     HL       0.250000       1.00800           0
     11471 MEMB     80       POPC     C15      CTL5    -0.350000       12.0110           0
     11472 MEMB     80       POPC     H15A     HL       0.250000       1.00800           0
     11473 MEMB     80       POPC     H15B     HL       0.250000       1.00800           0
     11474 MEMB     80       POPC     H15C     HL       0.250000       1.00800           0
     11475 MEMB     80       POPC     C11      CTL2    -0.800000E-01   12.0110           0
     11476 MEMB     80       POPC     H11A     HAL2     0.900000E-01   1.00800           0
     11477 MEMB     80       POPC     H11B     HAL2     0.900000E-01   1.00800           0
     11478 MEMB     80       POPC     P        PL        1.50000       30.9740           0
     11479 MEMB     80       POPC     O13      O2L     -0.780000       15.9994           0
     11480 MEMB     80       POPC     O14      O2L     -0.780000       15.9994           0
     11481 MEMB     80       POPC     O12      OSLP    -0.570000       15.9994           0
     11482 MEMB     80       POPC     O11      OSLP    -0.570000       15.9994           0
     11483 MEMB     80       POPC     C1       CTL2    -0.800000E-01   12.0110           0
     11484 MEMB     80       POPC     HA       HAL2     0.900000E-01   1.00800           0
     11485 MEMB     80       POPC     HB       HAL2     0.900000E-01   1.00800           0
     11486 MEMB     80       POPC     C2       CTL1     0.170000       12.0110           0
     11487 MEMB     80       POPC     HS       HAL1     0.900000E-01   1.00800           0
     11488 MEMB     80       POPC     O21      OSL     -0.490000       15.9994           0
     11489 MEMB     80       POPC     C21      CL       0.900000       12.0110           0
     11490 MEMB     80       POPC     O22      OBL     -0.630000       15.9994           0
     11491 MEMB     80       POPC     C22      CTL2    -0.220000       12.0110           0
     11492 MEMB     80       POPC     H2R      HAL2     0.900000E-01   1.00800           0
     11493 MEMB     80       POPC     H2S      HAL2     0.900000E-01   1.00800           0
     11494 MEMB     80       POPC     C3       CTL2     0.800000E-01   12.0110           0
     11495 MEMB     80       POPC     HX       HAL2     0.900000E-01   1.00800           0
     11496 MEMB     80       POPC     HY       HAL2     0.900000E-01   1.00800           0
     11497 MEMB     80       POPC     O31      OSL     -0.490000       15.9994           0
     11498 MEMB     80       POPC     C31      CL       0.900000       12.0110           0
     11499 MEMB     80       POPC     O32      OBL     -0.630000       15.9994           0
     11500 MEMB     80       POPC     C32      CTL2    -0.220000       12.0110           0
     11501 MEMB     80       POPC     H2X      HAL2     0.900000E-01   1.00800           0
     11502 MEMB     80       POPC     H2Y      HAL2     0.900000E-01   1.00800           0
     11503 MEMB     80       POPC     C23      CTL2    -0.180000       12.0110           0
     11504 MEMB     80       POPC     H3R      HAL2     0.900000E-01   1.00800           0
     11505 MEMB     80       POPC     H3S      HAL2     0.900000E-01   1.00800           0
     11506 MEMB     80       POPC     C24      CTL2    -0.180000       12.0110           0
     11507 MEMB     80       POPC     H4R      HAL2     0.900000E-01   1.00800           0
     11508 MEMB     80       POPC     H4S      HAL2     0.900000E-01   1.00800           0
     11509 MEMB     80       POPC     C25      CTL2    -0.180000       12.0110           0
     11510 MEMB     80       POPC     H5R      HAL2     0.900000E-01   1.00800           0
     11511 MEMB     80       POPC     H5S      HAL2     0.900000E-01   1.00800           0
     11512 MEMB     80       POPC     C26      CTL2    -0.180000       12.0110           0
     11513 MEMB     80       POPC     H6R      HAL2     0.900000E-01   1.00800           0
     11514 MEMB     80       POPC     H6S      HAL2     0.900000E-01   1.00800           0
     11515 MEMB     80       POPC     C27      CTL2    -0.180000       12.0110           0
     11516 MEMB     80       POPC     H7R      HAL2     0.900000E-01   1.00800           0
     11517 MEMB     80       POPC     H7S      HAL2     0.900000E-01   1.00800           0
     11518 MEMB     80       POPC     C28      CTL2    -0.180000       12.0110           0
     11519 MEMB     80       POPC     H8R      HAL2     0.900000E-01   1.00800           0
     11520 MEMB     80       POPC     H8S      HAL2     0.900000E-01   1.00800           0
     11521 MEMB     80       POPC     C29      CEL1    -0.150000       12.0110           0
     11522 MEMB     80       POPC     H91      HEL1     0.150000       1.00800           0
     11523 MEMB     80       POPC     C210     CEL1    -0.150000       12.0110           0
     11524 MEMB     80       POPC     H101     HEL1     0.150000       1.00800           0
     11525 MEMB     80       POPC     C211     CTL2    -0.180000       12.0110           0
     11526 MEMB     80       POPC     H11R     HAL2     0.900000E-01   1.00800           0
     11527 MEMB     80       POPC     H11S     HAL2     0.900000E-01   1.00800           0
     11528 MEMB     80       POPC     C212     CTL2    -0.180000       12.0110           0
     11529 MEMB     80       POPC     H12R     HAL2     0.900000E-01   1.00800           0
     11530 MEMB     80       POPC     H12S     HAL2     0.900000E-01   1.00800           0
     11531 MEMB     80       POPC     C213     CTL2    -0.180000       12.0110           0
     11532 MEMB     80       POPC     H13R     HAL2     0.900000E-01   1.00800           0
     11533 MEMB     80       POPC     H13S     HAL2     0.900000E-01   1.00800           0
     11534 MEMB     80       POPC     C214     CTL2    -0.180000       12.0110           0
     11535 MEMB     80       POPC     H14R     HAL2     0.900000E-01   1.00800           0
     11536 MEMB     80       POPC     H14S     HAL2     0.900000E-01   1.00800           0
     11537 MEMB     80       POPC     C215     CTL2    -0.180000       12.0110           0
     11538 MEMB     80       POPC     H15R     HAL2     0.900000E-01   1.00800           0
     11539 MEMB     80       POPC     H15S     HAL2     0.900000E-01   1.00800           0
     11540 MEMB     80       POPC     C216     CTL2    -0.180000       12.0110           0
     11541 MEMB     80       POPC     H16R     HAL2     0.900000E-01   1.00800           0
     11542 MEMB     80       POPC     H16S     HAL2     0.900000E-01   1.00800           0
     11543 MEMB     80       POPC     C217     CTL2    -0.180000       12.0110           0
     11544 MEMB     80       POPC     H17R     HAL2     0.900000E-01   1.00800           0
     11545 MEMB     80       POPC     H17S     HAL2     0.900000E-01   1.00800           0
     11546 MEMB     80       POPC     C218     CTL3    -0.270000       12.0110           0
     11547 MEMB     80       POPC     H18R     HAL3     0.900000E-01   1.00800           0
     11548 MEMB     80       POPC     H18S     HAL3     0.900000E-01   1.00800           0
     11549 MEMB     80       POPC     H18T     HAL3     0.900000E-01   1.00800           0
     11550 MEMB     80       POPC     C33      CTL2    -0.180000       12.0110           0
     11551 MEMB     80       POPC     H3X      HAL2     0.900000E-01   1.00800           0
     11552 MEMB     80       POPC     H3Y      HAL2     0.900000E-01   1.00800           0
     11553 MEMB     80       POPC     C34      CTL2    -0.180000       12.0110           0
     11554 MEMB     80       POPC     H4X      HAL2     0.900000E-01   1.00800           0
     11555 MEMB     80       POPC     H4Y      HAL2     0.900000E-01   1.00800           0
     11556 MEMB     80       POPC     C35      CTL2    -0.180000       12.0110           0
     11557 MEMB     80       POPC     H5X      HAL2     0.900000E-01   1.00800           0
     11558 MEMB     80       POPC     H5Y      HAL2     0.900000E-01   1.00800           0
     11559 MEMB     80       POPC     C36      CTL2    -0.180000       12.0110           0
     11560 MEMB     80       POPC     H6X      HAL2     0.900000E-01   1.00800           0
     11561 MEMB     80       POPC     H6Y      HAL2     0.900000E-01   1.00800           0
     11562 MEMB     80       POPC     C37      CTL2    -0.180000       12.0110           0
     11563 MEMB     80       POPC     H7X      HAL2     0.900000E-01   1.00800           0
     11564 MEMB     80       POPC     H7Y      HAL2     0.900000E-01   1.00800           0
     11565 MEMB     80       POPC     C38      CTL2    -0.180000       12.0110           0
     11566 MEMB     80       POPC     H8X      HAL2     0.900000E-01   1.00800           0
     11567 MEMB     80       POPC     H8Y      HAL2     0.900000E-01   1.00800           0
     11568 MEMB     80       POPC     C39      CTL2    -0.180000       12.0110           0
     11569 MEMB     80       POPC     H9X      HAL2     0.900000E-01   1.00800           0
     11570 MEMB     80       POPC     H9Y      HAL2     0.900000E-01   1.00800           0
     11571 MEMB     80       POPC     C310     CTL2    -0.180000       12.0110           0
     11572 MEMB     80       POPC     H10X     HAL2     0.900000E-01   1.00800           0
     11573 MEMB     80       POPC     H10Y     HAL2     0.900000E-01   1.00800           0
     11574 MEMB     80       POPC     C311     CTL2    -0.180000       12.0110           0
     11575 MEMB     80       POPC     H11X     HAL2     0.900000E-01   1.00800           0
     11576 MEMB     80       POPC     H11Y     HAL2     0.900000E-01   1.00800           0
     11577 MEMB     80       POPC     C312     CTL2    -0.180000       12.0110           0
     11578 MEMB     80       POPC     H12X     HAL2     0.900000E-01   1.00800           0
     11579 MEMB     80       POPC     H12Y     HAL2     0.900000E-01   1.00800           0
     11580 MEMB     80       POPC     C313     CTL2    -0.180000       12.0110           0
     11581 MEMB     80       POPC     H13X     HAL2     0.900000E-01   1.00800           0
     11582 MEMB     80       POPC     H13Y     HAL2     0.900000E-01   1.00800           0
     11583 MEMB     80       POPC     C314     CTL2    -0.180000       12.0110           0
     11584 MEMB     80       POPC     H14X     HAL2     0.900000E-01   1.00800           0
     11585 MEMB     80       POPC     H14Y     HAL2     0.900000E-01   1.00800           0
     11586 MEMB     80       POPC     C315     CTL2    -0.180000       12.0110           0
     11587 MEMB     80       POPC     H15X     HAL2     0.900000E-01   1.00800           0
     11588 MEMB     80       POPC     H15Y     HAL2     0.900000E-01   1.00800           0
     11589 MEMB     80       POPC     C316     CTL3    -0.270000       12.0110           0
     11590 MEMB     80       POPC     H16X     HAL3     0.900000E-01   1.00800           0
     11591 MEMB     80       POPC     H16Y     HAL3     0.900000E-01   1.00800           0
     11592 MEMB     80       POPC     H16Z     HAL3     0.900000E-01   1.00800           0
     11593 MEMB     81       POPC     N        NTL     -0.600000       14.0070           0
     11594 MEMB     81       POPC     C12      CTL2    -0.100000       12.0110           0
     11595 MEMB     81       POPC     H12A     HL       0.250000       1.00800           0
     11596 MEMB     81       POPC     H12B     HL       0.250000       1.00800           0
     11597 MEMB     81       POPC     C13      CTL5    -0.350000       12.0110           0
     11598 MEMB     81       POPC     H13A     HL       0.250000       1.00800           0
     11599 MEMB     81       POPC     H13B     HL       0.250000       1.00800           0
     11600 MEMB     81       POPC     H13C     HL       0.250000       1.00800           0
     11601 MEMB     81       POPC     C14      CTL5    -0.350000       12.0110           0
     11602 MEMB     81       POPC     H14A     HL       0.250000       1.00800           0
     11603 MEMB     81       POPC     H14B     HL       0.250000       1.00800           0
     11604 MEMB     81       POPC     H14C     HL       0.250000       1.00800           0
     11605 MEMB     81       POPC     C15      CTL5    -0.350000       12.0110           0
     11606 MEMB     81       POPC     H15A     HL       0.250000       1.00800           0
     11607 MEMB     81       POPC     H15B     HL       0.250000       1.00800           0
     11608 MEMB     81       POPC     H15C     HL       0.250000       1.00800           0
     11609 MEMB     81       POPC     C11      CTL2    -0.800000E-01   12.0110           0
     11610 MEMB     81       POPC     H11A     HAL2     0.900000E-01   1.00800           0
     11611 MEMB     81       POPC     H11B     HAL2     0.900000E-01   1.00800           0
     11612 MEMB     81       POPC     P        PL        1.50000       30.9740           0
     11613 MEMB     81       POPC     O13      O2L     -0.780000       15.9994           0
     11614 MEMB     81       POPC     O14      O2L     -0.780000       15.9994           0
     11615 MEMB     81       POPC     O12      OSLP    -0.570000       15.9994           0
     11616 MEMB     81       POPC     O11      OSLP    -0.570000       15.9994           0
     11617 MEMB     81       POPC     C1       CTL2    -0.800000E-01   12.0110           0
     11618 MEMB     81       POPC     HA       HAL2     0.900000E-01   1.00800           0
     11619 MEMB     81       POPC     HB       HAL2     0.900000E-01   1.00800           0
     11620 MEMB     81       POPC     C2       CTL1     0.170000       12.0110           0
     11621 MEMB     81       POPC     HS       HAL1     0.900000E-01   1.00800           0
     11622 MEMB     81       POPC     O21      OSL     -0.490000       15.9994           0
     11623 MEMB     81       POPC     C21      CL       0.900000       12.0110           0
     11624 MEMB     81       POPC     O22      OBL     -0.630000       15.9994           0
     11625 MEMB     81       POPC     C22      CTL2    -0.220000       12.0110           0
     11626 MEMB     81       POPC     H2R      HAL2     0.900000E-01   1.00800           0
     11627 MEMB     81       POPC     H2S      HAL2     0.900000E-01   1.00800           0
     11628 MEMB     81       POPC     C3       CTL2     0.800000E-01   12.0110           0
     11629 MEMB     81       POPC     HX       HAL2     0.900000E-01   1.00800           0
     11630 MEMB     81       POPC     HY       HAL2     0.900000E-01   1.00800           0
     11631 MEMB     81       POPC     O31      OSL     -0.490000       15.9994           0
     11632 MEMB     81       POPC     C31      CL       0.900000       12.0110           0
     11633 MEMB     81       POPC     O32      OBL     -0.630000       15.9994           0
     11634 MEMB     81       POPC     C32      CTL2    -0.220000       12.0110           0
     11635 MEMB     81       POPC     H2X      HAL2     0.900000E-01   1.00800           0
     11636 MEMB     81       POPC     H2Y      HAL2     0.900000E-01   1.00800           0
     11637 MEMB     81       POPC     C23      CTL2    -0.180000       12.0110           0
     11638 MEMB     81       POPC     H3R      HAL2     0.900000E-01   1.00800           0
     11639 MEMB     81       POPC     H3S      HAL2     0.900000E-01   1.00800           0
     11640 MEMB     81       POPC     C24      CTL2    -0.180000       12.0110           0
     11641 MEMB     81       POPC     H4R      HAL2     0.900000E-01   1.00800           0
     11642 MEMB     81       POPC     H4S      HAL2     0.900000E-01   1.00800           0
     11643 MEMB     81       POPC     C25      CTL2    -0.180000       12.0110           0
     11644 MEMB     81       POPC     H5R      HAL2     0.900000E-01   1.00800           0
     11645 MEMB     81       POPC     H5S      HAL2     0.900000E-01   1.00800           0
     11646 MEMB     81       POPC     C26      CTL2    -0.180000       12.0110           0
     11647 MEMB     81       POPC     H6R      HAL2     0.900000E-01   1.00800           0
     11648 MEMB     81       POPC     H6S      HAL2     0.900000E-01   1.00800           0
     11649 MEMB     81       POPC     C27      CTL2    -0.180000       12.0110           0
     11650 MEMB     81       POPC     H7R      HAL2     0.900000E-01   1.00800           0
     11651 MEMB     81       POPC     H7S      HAL2     0.900000E-01   1.00800           0
     11652 MEMB     81       POPC     C28      CTL2    -0.180000       12.0110           0
     11653 MEMB     81       POPC     H8R      HAL2     0.900000E-01   1.00800           0
     11654 MEMB     81       POPC     H8S      HAL2     0.900000E-01   1.00800           0
     11655 MEMB     81       POPC     C29      CEL1    -0.150000       12.0110           0
     11656 MEMB     81       POPC     H91      HEL1     0.150000       1.00800           0
     11657 MEMB     81       POPC     C210     CEL1    -0.150000       12.0110           0
     11658 MEMB     81       POPC     H101     HEL1     0.150000       1.00800           0
     11659 MEMB     81       POPC     C211     CTL2    -0.180000       12.0110           0
     11660 MEMB     81       POPC     H11R     HAL2     0.900000E-01   1.00800           0
     11661 MEMB     81       POPC     H11S     HAL2     0.900000E-01   1.00800           0
     11662 MEMB     81       POPC     C212     CTL2    -0.180000       12.0110           0
     11663 MEMB     81       POPC     H12R     HAL2     0.900000E-01   1.00800           0
     11664 MEMB     81       POPC     H12S     HAL2     0.900000E-01   1.00800           0
     11665 MEMB     81       POPC     C213     CTL2    -0.180000       12.0110           0
     11666 MEMB     81       POPC     H13R     HAL2     0.900000E-01   1.00800           0
     11667 MEMB     81       POPC     H13S     HAL2     0.900000E-01   1.00800           0
     11668 MEMB     81       POPC     C214     CTL2    -0.180000       12.0110           0
     11669 MEMB     81       POPC     H14R     HAL2     0.900000E-01   1.00800           0
     11670 MEMB     81       POPC     H14S     HAL2     0.900000E-01   1.00800           0
     11671 MEMB     81       POPC     C215     CTL2    -0.180000       12.0110           0
     11672 MEMB     81       POPC     H15R     HAL2     0.900000E-01   1.00800           0
     11673 MEMB     81       POPC     H15S     HAL2     0.900000E-01   1.00800           0
     11674 MEMB     81       POPC     C216     CTL2    -0.180000       12.0110           0
     11675 MEMB     81       POPC     H16R     HAL2     0.900000E-01   1.00800           0
     11676 MEMB     81       POPC     H16S     HAL2     0.900000E-01   1.00800           0
     11677 MEMB     81       POPC     C217     CTL2    -0.180000       12.0110           0
     11678 MEMB     81       POPC     H17R     HAL2     0.900000E-01   1.00800           0
     11679 MEMB     81       POPC     H17S     HAL2     0.900000E-01   1.00800           0
     11680 MEMB     81       POPC     C218     CTL3    -0.270000       12.0110           0
     11681 MEMB     81       POPC     H18R     HAL3     0.900000E-01   1.00800           0
     11682 MEMB     81       POPC     H18S     HAL3     0.900000E-01   1.00800           0
     11683 MEMB     81       POPC     H18T     HAL3     0.900000E-01   1.00800           0
     11684 MEMB     81       POPC     C33      CTL2    -0.180000       12.0110           0
     11685 MEMB     81       POPC     H3X      HAL2     0.900000E-01   1.00800           0
     11686 MEMB     81       POPC     H3Y      HAL2     0.900000E-01   1.00800           0
     11687 MEMB     81       POPC     C34      CTL2    -0.180000       12.0110           0
     11688 MEMB     81       POPC     H4X      HAL2     0.900000E-01   1.00800           0
     11689 MEMB     81       POPC     H4Y      HAL2     0.900000E-01   1.00800           0
     11690 MEMB     81       POPC     C35      CTL2    -0.180000       12.0110           0
     11691 MEMB     81       POPC     H5X      HAL2     0.900000E-01   1.00800           0
     11692 MEMB     81       POPC     H5Y      HAL2     0.900000E-01   1.00800           0
     11693 MEMB     81       POPC     C36      CTL2    -0.180000       12.0110           0
     11694 MEMB     81       POPC     H6X      HAL2     0.900000E-01   1.00800           0
     11695 MEMB     81       POPC     H6Y      HAL2     0.900000E-01   1.00800           0
     11696 MEMB     81       POPC     C37      CTL2    -0.180000       12.0110           0
     11697 MEMB     81       POPC     H7X      HAL2     0.900000E-01   1.00800           0
     11698 MEMB     81       POPC     H7Y      HAL2     0.900000E-01   1.00800           0
     11699 MEMB     81       POPC     C38      CTL2    -0.180000       12.0110           0
     11700 MEMB     81       POPC     H8X      HAL2     0.900000E-01   1.00800           0
     11701 MEMB     81       POPC     H8Y      HAL2     0.900000E-01   1.00800           0
     11702 MEMB     81       POPC     C39      CTL2    -0.180000       12.0110           0
     11703 MEMB     81       POPC     H9X      HAL2     0.900000E-01   1.00800           0
     11704 MEMB     81       POPC     H9Y      HAL2     0.900000E-01   1.00800           0
     11705 MEMB     81       POPC     C310     CTL2    -0.180000       12.0110           0
     11706 MEMB     81       POPC     H10X     HAL2     0.900000E-01   1.00800           0
     11707 MEMB     81       POPC     H10Y     HAL2     0.900000E-01   1.00800           0
     11708 MEMB     81       POPC     C311     CTL2    -0.180000       12.0110           0
     11709 MEMB     81       POPC     H11X     HAL2     0.900000E-01   1.00800           0
     11710 MEMB     81       POPC     H11Y     HAL2     0.900000E-01   1.00800           0
     11711 MEMB     81       POPC     C312     CTL2    -0.180000       12.0110           0
     11712 MEMB     81       POPC     H12X     HAL2     0.900000E-01   1.00800           0
     11713 MEMB     81       POPC     H12Y     HAL2     0.900000E-01   1.00800           0
     11714 MEMB     81       POPC     C313     CTL2    -0.180000       12.0110           0
     11715 MEMB     81       POPC     H13X     HAL2     0.900000E-01   1.00800           0
     11716 MEMB     81       POPC     H13Y     HAL2     0.900000E-01   1.00800           0
     11717 MEMB     81       POPC     C314     CTL2    -0.180000       12.0110           0
     11718 MEMB     81       POPC     H14X     HAL2     0.900000E-01   1.00800           0
     11719 MEMB     81       POPC     H14Y     HAL2     0.900000E-01   1.00800           0
     11720 MEMB     81       POPC     C315     CTL2    -0.180000       12.0110           0
     11721 MEMB     81       POPC     H15X     HAL2     0.900000E-01   1.00800           0
     11722 MEMB     81       POPC     H15Y     HAL2     0.900000E-01   1.00800           0
     11723 MEMB     81       POPC     C316     CTL3    -0.270000       12.0110           0
     11724 MEMB     81       POPC     H16X     HAL3     0.900000E-01   1.00800           0
     11725 MEMB     81       POPC     H16Y     HAL3     0.900000E-01   1.00800           0
     11726 MEMB     81       POPC     H16Z     HAL3     0.900000E-01   1.00800           0
     11727 MEMB     82       POPC     N        NTL     -0.600000       14.0070           0
     11728 MEMB     82       POPC     C12      CTL2    -0.100000       12.0110           0
     11729 MEMB     82       POPC     H12A     HL       0.250000       1.00800           0
     11730 MEMB     82       POPC     H12B     HL       0.250000       1.00800           0
     11731 MEMB     82       POPC     C13      CTL5    -0.350000       12.0110           0
     11732 MEMB     82       POPC     H13A     HL       0.250000       1.00800           0
     11733 MEMB     82       POPC     H13B     HL       0.250000       1.00800           0
     11734 MEMB     82       POPC     H13C     HL       0.250000       1.00800           0
     11735 MEMB     82       POPC     C14      CTL5    -0.350000       12.0110           0
     11736 MEMB     82       POPC     H14A     HL       0.250000       1.00800           0
     11737 MEMB     82       POPC     H14B     HL       0.250000       1.00800           0
     11738 MEMB     82       POPC     H14C     HL       0.250000       1.00800           0
     11739 MEMB     82       POPC     C15      CTL5    -0.350000       12.0110           0
     11740 MEMB     82       POPC     H15A     HL       0.250000       1.00800           0
     11741 MEMB     82       POPC     H15B     HL       0.250000       1.00800           0
     11742 MEMB     82       POPC     H15C     HL       0.250000       1.00800           0
     11743 MEMB     82       POPC     C11      CTL2    -0.800000E-01   12.0110           0
     11744 MEMB     82       POPC     H11A     HAL2     0.900000E-01   1.00800           0
     11745 MEMB     82       POPC     H11B     HAL2     0.900000E-01   1.00800           0
     11746 MEMB     82       POPC     P        PL        1.50000       30.9740           0
     11747 MEMB     82       POPC     O13      O2L     -0.780000       15.9994           0
     11748 MEMB     82       POPC     O14      O2L     -0.780000       15.9994           0
     11749 MEMB     82       POPC     O12      OSLP    -0.570000       15.9994           0
     11750 MEMB     82       POPC     O11      OSLP    -0.570000       15.9994           0
     11751 MEMB     82       POPC     C1       CTL2    -0.800000E-01   12.0110           0
     11752 MEMB     82       POPC     HA       HAL2     0.900000E-01   1.00800           0
     11753 MEMB     82       POPC     HB       HAL2     0.900000E-01   1.00800           0
     11754 MEMB     82       POPC     C2       CTL1     0.170000       12.0110           0
     11755 MEMB     82       POPC     HS       HAL1     0.900000E-01   1.00800           0
     11756 MEMB     82       POPC     O21      OSL     -0.490000       15.9994           0
     11757 MEMB     82       POPC     C21      CL       0.900000       12.0110           0
     11758 MEMB     82       POPC     O22      OBL     -0.630000       15.9994           0
     11759 MEMB     82       POPC     C22      CTL2    -0.220000       12.0110           0
     11760 MEMB     82       POPC     H2R      HAL2     0.900000E-01   1.00800           0
     11761 MEMB     82       POPC     H2S      HAL2     0.900000E-01   1.00800           0
     11762 MEMB     82       POPC     C3       CTL2     0.800000E-01   12.0110           0
     11763 MEMB     82       POPC     HX       HAL2     0.900000E-01   1.00800           0
     11764 MEMB     82       POPC     HY       HAL2     0.900000E-01   1.00800           0
     11765 MEMB     82       POPC     O31      OSL     -0.490000       15.9994           0
     11766 MEMB     82       POPC     C31      CL       0.900000       12.0110           0
     11767 MEMB     82       POPC     O32      OBL     -0.630000       15.9994           0
     11768 MEMB     82       POPC     C32      CTL2    -0.220000       12.0110           0
     11769 MEMB     82       POPC     H2X      HAL2     0.900000E-01   1.00800           0
     11770 MEMB     82       POPC     H2Y      HAL2     0.900000E-01   1.00800           0
     11771 MEMB     82       POPC     C23      CTL2    -0.180000       12.0110           0
     11772 MEMB     82       POPC     H3R      HAL2     0.900000E-01   1.00800           0
     11773 MEMB     82       POPC     H3S      HAL2     0.900000E-01   1.00800           0
     11774 MEMB     82       POPC     C24      CTL2    -0.180000       12.0110           0
     11775 MEMB     82       POPC     H4R      HAL2     0.900000E-01   1.00800           0
     11776 MEMB     82       POPC     H4S      HAL2     0.900000E-01   1.00800           0
     11777 MEMB     82       POPC     C25      CTL2    -0.180000       12.0110           0
     11778 MEMB     82       POPC     H5R      HAL2     0.900000E-01   1.00800           0
     11779 MEMB     82       POPC     H5S      HAL2     0.900000E-01   1.00800           0
     11780 MEMB     82       POPC     C26      CTL2    -0.180000       12.0110           0
     11781 MEMB     82       POPC     H6R      HAL2     0.900000E-01   1.00800           0
     11782 MEMB     82       POPC     H6S      HAL2     0.900000E-01   1.00800           0
     11783 MEMB     82       POPC     C27      CTL2    -0.180000       12.0110           0
     11784 MEMB     82       POPC     H7R      HAL2     0.900000E-01   1.00800           0
     11785 MEMB     82       POPC     H7S      HAL2     0.900000E-01   1.00800           0
     11786 MEMB     82       POPC     C28      CTL2    -0.180000       12.0110           0
     11787 MEMB     82       POPC     H8R      HAL2     0.900000E-01   1.00800           0
     11788 MEMB     82       POPC     H8S      HAL2     0.900000E-01   1.00800           0
     11789 MEMB     82       POPC     C29      CEL1    -0.150000       12.0110           0
     11790 MEMB     82       POPC     H91      HEL1     0.150000       1.00800           0
     11791 MEMB     82       POPC     C210     CEL1    -0.150000       12.0110           0
     11792 MEMB     82       POPC     H101     HEL1     0.150000       1.00800           0
     11793 MEMB     82       POPC     C211     CTL2    -0.180000       12.0110           0
     11794 MEMB     82       POPC     H11R     HAL2     0.900000E-01   1.00800           0
     11795 MEMB     82       POPC     H11S     HAL2     0.900000E-01   1.00800           0
     11796 MEMB     82       POPC     C212     CTL2    -0.180000       12.0110           0
     11797 MEMB     82       POPC     H12R     HAL2     0.900000E-01   1.00800           0
     11798 MEMB     82       POPC     H12S     HAL2     0.900000E-01   1.00800           0
     11799 MEMB     82       POPC     C213     CTL2    -0.180000       12.0110           0
     11800 MEMB     82       POPC     H13R     HAL2     0.900000E-01   1.00800           0
     11801 MEMB     82       POPC     H13S     HAL2     0.900000E-01   1.00800           0
     11802 MEMB     82       POPC     C214     CTL2    -0.180000       12.0110           0
     11803 MEMB     82       POPC     H14R     HAL2     0.900000E-01   1.00800           0
     11804 MEMB     82       POPC     H14S     HAL2     0.900000E-01   1.00800           0
     11805 MEMB     82       POPC     C215     CTL2    -0.180000       12.0110           0
     11806 MEMB     82       POPC     H15R     HAL2     0.900000E-01   1.00800           0
     11807 MEMB     82       POPC     H15S     HAL2     0.900000E-01   1.00800           0
     11808 MEMB     82       POPC     C216     CTL2    -0.180000       12.0110           0
     11809 MEMB     82       POPC     H16R     HAL2     0.900000E-01   1.00800           0
     11810 MEMB     82       POPC     H16S     HAL2     0.900000E-01   1.00800           0
     11811 MEMB     82       POPC     C217     CTL2    -0.180000       12.0110           0
     11812 MEMB     82       POPC     H17R     HAL2     0.900000E-01   1.00800           0
     11813 MEMB     82       POPC     H17S     HAL2     0.900000E-01   1.00800           0
     11814 MEMB     82       POPC     C218     CTL3    -0.270000       12.0110           0
     11815 MEMB     82       POPC     H18R     HAL3     0.900000E-01   1.00800           0
     11816 MEMB     82       POPC     H18S     HAL3     0.900000E-01   1.00800           0
     11817 MEMB     82       POPC     H18T     HAL3     0.900000E-01   1.00800           0
     11818 MEMB     82       POPC     C33      CTL2    -0.180000       12.0110           0
     11819 MEMB     82       POPC     H3X      HAL2     0.900000E-01   1.00800           0
     11820 MEMB     82       POPC     H3Y      HAL2     0.900000E-01   1.00800           0
     11821 MEMB     82       POPC     C34      CTL2    -0.180000       12.0110           0
     11822 MEMB     82       POPC     H4X      HAL2     0.900000E-01   1.00800           0
     11823 MEMB     82       POPC     H4Y      HAL2     0.900000E-01   1.00800           0
     11824 MEMB     82       POPC     C35      CTL2    -0.180000       12.0110           0
     11825 MEMB     82       POPC     H5X      HAL2     0.900000E-01   1.00800           0
     11826 MEMB     82       POPC     H5Y      HAL2     0.900000E-01   1.00800           0
     11827 MEMB     82       POPC     C36      CTL2    -0.180000       12.0110           0
     11828 MEMB     82       POPC     H6X      HAL2     0.900000E-01   1.00800           0
     11829 MEMB     82       POPC     H6Y      HAL2     0.900000E-01   1.00800           0
     11830 MEMB     82       POPC     C37      CTL2    -0.180000       12.0110           0
     11831 MEMB     82       POPC     H7X      HAL2     0.900000E-01   1.00800           0
     11832 MEMB     82       POPC     H7Y      HAL2     0.900000E-01   1.00800           0
     11833 MEMB     82       POPC     C38      CTL2    -0.180000       12.0110           0
     11834 MEMB     82       POPC     H8X      HAL2     0.900000E-01   1.00800           0
     11835 MEMB     82       POPC     H8Y      HAL2     0.900000E-01   1.00800           0
     11836 MEMB     82       POPC     C39      CTL2    -0.180000       12.0110           0
     11837 MEMB     82       POPC     H9X      HAL2     0.900000E-01   1.00800           0
     11838 MEMB     82       POPC     H9Y      HAL2     0.900000E-01   1.00800           0
     11839 MEMB     82       POPC     C310     CTL2    -0.180000       12.0110           0
     11840 MEMB     82       POPC     H10X     HAL2     0.900000E-01   1.00800           0
     11841 MEMB     82       POPC     H10Y     HAL2     0.900000E-01   1.00800           0
     11842 MEMB     82       POPC     C311     CTL2    -0.180000       12.0110           0
     11843 MEMB     82       POPC     H11X     HAL2     0.900000E-01   1.00800           0
     11844 MEMB     82       POPC     H11Y     HAL2     0.900000E-01   1.00800           0
     11845 MEMB     82       POPC     C312     CTL2    -0.180000       12.0110           0
     11846 MEMB     82       POPC     H12X     HAL2     0.900000E-01   1.00800           0
     11847 MEMB     82       POPC     H12Y     HAL2     0.900000E-01   1.00800           0
     11848 MEMB     82       POPC     C313     CTL2    -0.180000       12.0110           0
     11849 MEMB     82       POPC     H13X     HAL2     0.900000E-01   1.00800           0
     11850 MEMB     82       POPC     H13Y     HAL2     0.900000E-01   1.00800           0
     11851 MEMB     82       POPC     C314     CTL2    -0.180000       12.0110           0
     11852 MEMB     82       POPC     H14X     HAL2     0.900000E-01   1.00800           0
     11853 MEMB     82       POPC     H14Y     HAL2     0.900000E-01   1.00800           0
     11854 MEMB     82       POPC     C315     CTL2    -0.180000       12.0110           0
     11855 MEMB     82       POPC     H15X     HAL2     0.900000E-01   1.00800           0
     11856 MEMB     82       POPC     H15Y     HAL2     0.900000E-01   1.00800           0
     11857 MEMB     82       POPC     C316     CTL3    -0.270000       12.0110           0
     11858 MEMB     82       POPC     H16X     HAL3     0.900000E-01   1.00800           0
     11859 MEMB     82       POPC     H16Y     HAL3     0.900000E-01   1.00800           0
     11860 MEMB     82       POPC     H16Z     HAL3     0.900000E-01   1.00800           0
     11861 MEMB     83       POPC     N        NTL     -0.600000       14.0070           0
     11862 MEMB     83       POPC     C12      CTL2    -0.100000       12.0110           0
     11863 MEMB     83       POPC     H12A     HL       0.250000       1.00800           0
     11864 MEMB     83       POPC     H12B     HL       0.250000       1.00800           0
     11865 MEMB     83       POPC     C13      CTL5    -0.350000       12.0110           0
     11866 MEMB     83       POPC     H13A     HL       0.250000       1.00800           0
     11867 MEMB     83       POPC     H13B     HL       0.250000       1.00800           0
     11868 MEMB     83       POPC     H13C     HL       0.250000       1.00800           0
     11869 MEMB     83       POPC     C14      CTL5    -0.350000       12.0110           0
     11870 MEMB     83       POPC     H14A     HL       0.250000       1.00800           0
     11871 MEMB     83       POPC     H14B     HL       0.250000       1.00800           0
     11872 MEMB     83       POPC     H14C     HL       0.250000       1.00800           0
     11873 MEMB     83       POPC     C15      CTL5    -0.350000       12.0110           0
     11874 MEMB     83       POPC     H15A     HL       0.250000       1.00800           0
     11875 MEMB     83       POPC     H15B     HL       0.250000       1.00800           0
     11876 MEMB     83       POPC     H15C     HL       0.250000       1.00800           0
     11877 MEMB     83       POPC     C11      CTL2    -0.800000E-01   12.0110           0
     11878 MEMB     83       POPC     H11A     HAL2     0.900000E-01   1.00800           0
     11879 MEMB     83       POPC     H11B     HAL2     0.900000E-01   1.00800           0
     11880 MEMB     83       POPC     P        PL        1.50000       30.9740           0
     11881 MEMB     83       POPC     O13      O2L     -0.780000       15.9994           0
     11882 MEMB     83       POPC     O14      O2L     -0.780000       15.9994           0
     11883 MEMB     83       POPC     O12      OSLP    -0.570000       15.9994           0
     11884 MEMB     83       POPC     O11      OSLP    -0.570000       15.9994           0
     11885 MEMB     83       POPC     C1       CTL2    -0.800000E-01   12.0110           0
     11886 MEMB     83       POPC     HA       HAL2     0.900000E-01   1.00800           0
     11887 MEMB     83       POPC     HB       HAL2     0.900000E-01   1.00800           0
     11888 MEMB     83       POPC     C2       CTL1     0.170000       12.0110           0
     11889 MEMB     83       POPC     HS       HAL1     0.900000E-01   1.00800           0
     11890 MEMB     83       POPC     O21      OSL     -0.490000       15.9994           0
     11891 MEMB     83       POPC     C21      CL       0.900000       12.0110           0
     11892 MEMB     83       POPC     O22      OBL     -0.630000       15.9994           0
     11893 MEMB     83       POPC     C22      CTL2    -0.220000       12.0110           0
     11894 MEMB     83       POPC     H2R      HAL2     0.900000E-01   1.00800           0
     11895 MEMB     83       POPC     H2S      HAL2     0.900000E-01   1.00800           0
     11896 MEMB     83       POPC     C3       CTL2     0.800000E-01   12.0110           0
     11897 MEMB     83       POPC     HX       HAL2     0.900000E-01   1.00800           0
     11898 MEMB     83       POPC     HY       HAL2     0.900000E-01   1.00800           0
     11899 MEMB     83       POPC     O31      OSL     -0.490000       15.9994           0
     11900 MEMB     83       POPC     C31      CL       0.900000       12.0110           0
     11901 MEMB     83       POPC     O32      OBL     -0.630000       15.9994           0
     11902 MEMB     83       POPC     C32      CTL2    -0.220000       12.0110           0
     11903 MEMB     83       POPC     H2X      HAL2     0.900000E-01   1.00800           0
     11904 MEMB     83       POPC     H2Y      HAL2     0.900000E-01   1.00800           0
     11905 MEMB     83       POPC     C23      CTL2    -0.180000       12.0110           0
     11906 MEMB     83       POPC     H3R      HAL2     0.900000E-01   1.00800           0
     11907 MEMB     83       POPC     H3S      HAL2     0.900000E-01   1.00800           0
     11908 MEMB     83       POPC     C24      CTL2    -0.180000       12.0110           0
     11909 MEMB     83       POPC     H4R      HAL2     0.900000E-01   1.00800           0
     11910 MEMB     83       POPC     H4S      HAL2     0.900000E-01   1.00800           0
     11911 MEMB     83       POPC     C25      CTL2    -0.180000       12.0110           0
     11912 MEMB     83       POPC     H5R      HAL2     0.900000E-01   1.00800           0
     11913 MEMB     83       POPC     H5S      HAL2     0.900000E-01   1.00800           0
     11914 MEMB     83       POPC     C26      CTL2    -0.180000       12.0110           0
     11915 MEMB     83       POPC     H6R      HAL2     0.900000E-01   1.00800           0
     11916 MEMB     83       POPC     H6S      HAL2     0.900000E-01   1.00800           0
     11917 MEMB     83       POPC     C27      CTL2    -0.180000       12.0110           0
     11918 MEMB     83       POPC     H7R      HAL2     0.900000E-01   1.00800           0
     11919 MEMB     83       POPC     H7S      HAL2     0.900000E-01   1.00800           0
     11920 MEMB     83       POPC     C28      CTL2    -0.180000       12.0110           0
     11921 MEMB     83       POPC     H8R      HAL2     0.900000E-01   1.00800           0
     11922 MEMB     83       POPC     H8S      HAL2     0.900000E-01   1.00800           0
     11923 MEMB     83       POPC     C29      CEL1    -0.150000       12.0110           0
     11924 MEMB     83       POPC     H91      HEL1     0.150000       1.00800           0
     11925 MEMB     83       POPC     C210     CEL1    -0.150000       12.0110           0
     11926 MEMB     83       POPC     H101     HEL1     0.150000       1.00800           0
     11927 MEMB     83       POPC     C211     CTL2    -0.180000       12.0110           0
     11928 MEMB     83       POPC     H11R     HAL2     0.900000E-01   1.00800           0
     11929 MEMB     83       POPC     H11S     HAL2     0.900000E-01   1.00800           0
     11930 MEMB     83       POPC     C212     CTL2    -0.180000       12.0110           0
     11931 MEMB     83       POPC     H12R     HAL2     0.900000E-01   1.00800           0
     11932 MEMB     83       POPC     H12S     HAL2     0.900000E-01   1.00800           0
     11933 MEMB     83       POPC     C213     CTL2    -0.180000       12.0110           0
     11934 MEMB     83       POPC     H13R     HAL2     0.900000E-01   1.00800           0
     11935 MEMB     83       POPC     H13S     HAL2     0.900000E-01   1.00800           0
     11936 MEMB     83       POPC     C214     CTL2    -0.180000       12.0110           0
     11937 MEMB     83       POPC     H14R     HAL2     0.900000E-01   1.00800           0
     11938 MEMB     83       POPC     H14S     HAL2     0.900000E-01   1.00800           0
     11939 MEMB     83       POPC     C215     CTL2    -0.180000       12.0110           0
     11940 MEMB     83       POPC     H15R     HAL2     0.900000E-01   1.00800           0
     11941 MEMB     83       POPC     H15S     HAL2     0.900000E-01   1.00800           0
     11942 MEMB     83       POPC     C216     CTL2    -0.180000       12.0110           0
     11943 MEMB     83       POPC     H16R     HAL2     0.900000E-01   1.00800           0
     11944 MEMB     83       POPC     H16S     HAL2     0.900000E-01   1.00800           0
     11945 MEMB     83       POPC     C217     CTL2    -0.180000       12.0110           0
     11946 MEMB     83       POPC     H17R     HAL2     0.900000E-01   1.00800           0
     11947 MEMB     83       POPC     H17S     HAL2     0.900000E-01   1.00800           0
     11948 MEMB     83       POPC     C218     CTL3    -0.270000       12.0110           0
     11949 MEMB     83       POPC     H18R     HAL3     0.900000E-01   1.00800           0
     11950 MEMB     83       POPC     H18S     HAL3     0.900000E-01   1.00800           0
     11951 MEMB     83       POPC     H18T     HAL3     0.900000E-01   1.00800           0
     11952 MEMB     83       POPC     C33      CTL2    -0.180000       12.0110           0
     11953 MEMB     83       POPC     H3X      HAL2     0.900000E-01   1.00800           0
     11954 MEMB     83       POPC     H3Y      HAL2     0.900000E-01   1.00800           0
     11955 MEMB     83       POPC     C34      CTL2    -0.180000       12.0110           0
     11956 MEMB     83       POPC     H4X      HAL2     0.900000E-01   1.00800           0
     11957 MEMB     83       POPC     H4Y      HAL2     0.900000E-01   1.00800           0
     11958 MEMB     83       POPC     C35      CTL2    -0.180000       12.0110           0
     11959 MEMB     83       POPC     H5X      HAL2     0.900000E-01   1.00800           0
     11960 MEMB     83       POPC     H5Y      HAL2     0.900000E-01   1.00800           0
     11961 MEMB     83       POPC     C36      CTL2    -0.180000       12.0110           0
     11962 MEMB     83       POPC     H6X      HAL2     0.900000E-01   1.00800           0
     11963 MEMB     83       POPC     H6Y      HAL2     0.900000E-01   1.00800           0
     11964 MEMB     83       POPC     C37      CTL2    -0.180000       12.0110           0
     11965 MEMB     83       POPC     H7X      HAL2     0.900000E-01   1.00800           0
     11966 MEMB     83       POPC     H7Y      HAL2     0.900000E-01   1.00800           0
     11967 MEMB     83       POPC     C38      CTL2    -0.180000       12.0110           0
     11968 MEMB     83       POPC     H8X      HAL2     0.900000E-01   1.00800           0
     11969 MEMB     83       POPC     H8Y      HAL2     0.900000E-01   1.00800           0
     11970 MEMB     83       POPC     C39      CTL2    -0.180000       12.0110           0
     11971 MEMB     83       POPC     H9X      HAL2     0.900000E-01   1.00800           0
     11972 MEMB     83       POPC     H9Y      HAL2     0.900000E-01   1.00800           0
     11973 MEMB     83       POPC     C310     CTL2    -0.180000       12.0110           0
     11974 MEMB     83       POPC     H10X     HAL2     0.900000E-01   1.00800           0
     11975 MEMB     83       POPC     H10Y     HAL2     0.900000E-01   1.00800           0
     11976 MEMB     83       POPC     C311     CTL2    -0.180000       12.0110           0
     11977 MEMB     83       POPC     H11X     HAL2     0.900000E-01   1.00800           0
     11978 MEMB     83       POPC     H11Y     HAL2     0.900000E-01   1.00800           0
     11979 MEMB     83       POPC     C312     CTL2    -0.180000       12.0110           0
     11980 MEMB     83       POPC     H12X     HAL2     0.900000E-01   1.00800           0
     11981 MEMB     83       POPC     H12Y     HAL2     0.900000E-01   1.00800           0
     11982 MEMB     83       POPC     C313     CTL2    -0.180000       12.0110           0
     11983 MEMB     83       POPC     H13X     HAL2     0.900000E-01   1.00800           0
     11984 MEMB     83       POPC     H13Y     HAL2     0.900000E-01   1.00800           0
     11985 MEMB     83       POPC     C314     CTL2    -0.180000       12.0110           0
     11986 MEMB     83       POPC     H14X     HAL2     0.900000E-01   1.00800           0
     11987 MEMB     83       POPC     H14Y     HAL2     0.900000E-01   1.00800           0
     11988 MEMB     83       POPC     C315     CTL2    -0.180000       12.0110           0
     11989 MEMB     83       POPC     H15X     HAL2     0.900000E-01   1.00800           0
     11990 MEMB     83       POPC     H15Y     HAL2     0.900000E-01   1.00800           0
     11991 MEMB     83       POPC     C316     CTL3    -0.270000       12.0110           0
     11992 MEMB     83       POPC     H16X     HAL3     0.900000E-01   1.00800           0
     11993 MEMB     83       POPC     H16Y     HAL3     0.900000E-01   1.00800           0
     11994 MEMB     83       POPC     H16Z     HAL3     0.900000E-01   1.00800           0
     11995 MEMB     84       POPC     N        NTL     -0.600000       14.0070           0
     11996 MEMB     84       POPC     C12      CTL2    -0.100000       12.0110           0
     11997 MEMB     84       POPC     H12A     HL       0.250000       1.00800           0
     11998 MEMB     84       POPC     H12B     HL       0.250000       1.00800           0
     11999 MEMB     84       POPC     C13      CTL5    -0.350000       12.0110           0
     12000 MEMB     84       POPC     H13A     HL       0.250000       1.00800           0
     12001 MEMB     84       POPC     H13B     HL       0.250000       1.00800           0
     12002 MEMB     84       POPC     H13C     HL       0.250000       1.00800           0
     12003 MEMB     84       POPC     C14      CTL5    -0.350000       12.0110           0
     12004 MEMB     84       POPC     H14A     HL       0.250000       1.00800           0
     12005 MEMB     84       POPC     H14B     HL       0.250000       1.00800           0
     12006 MEMB     84       POPC     H14C     HL       0.250000       1.00800           0
     12007 MEMB     84       POPC     C15      CTL5    -0.350000       12.0110           0
     12008 MEMB     84       POPC     H15A     HL       0.250000       1.00800           0
     12009 MEMB     84       POPC     H15B     HL       0.250000       1.00800           0
     12010 MEMB     84       POPC     H15C     HL       0.250000       1.00800           0
     12011 MEMB     84       POPC     C11      CTL2    -0.800000E-01   12.0110           0
     12012 MEMB     84       POPC     H11A     HAL2     0.900000E-01   1.00800           0
     12013 MEMB     84       POPC     H11B     HAL2     0.900000E-01   1.00800           0
     12014 MEMB     84       POPC     P        PL        1.50000       30.9740           0
     12015 MEMB     84       POPC     O13      O2L     -0.780000       15.9994           0
     12016 MEMB     84       POPC     O14      O2L     -0.780000       15.9994           0
     12017 MEMB     84       POPC     O12      OSLP    -0.570000       15.9994           0
     12018 MEMB     84       POPC     O11      OSLP    -0.570000       15.9994           0
     12019 MEMB     84       POPC     C1       CTL2    -0.800000E-01   12.0110           0
     12020 MEMB     84       POPC     HA       HAL2     0.900000E-01   1.00800           0
     12021 MEMB     84       POPC     HB       HAL2     0.900000E-01   1.00800           0
     12022 MEMB     84       POPC     C2       CTL1     0.170000       12.0110           0
     12023 MEMB     84       POPC     HS       HAL1     0.900000E-01   1.00800           0
     12024 MEMB     84       POPC     O21      OSL     -0.490000       15.9994           0
     12025 MEMB     84       POPC     C21      CL       0.900000       12.0110           0
     12026 MEMB     84       POPC     O22      OBL     -0.630000       15.9994           0
     12027 MEMB     84       POPC     C22      CTL2    -0.220000       12.0110           0
     12028 MEMB     84       POPC     H2R      HAL2     0.900000E-01   1.00800           0
     12029 MEMB     84       POPC     H2S      HAL2     0.900000E-01   1.00800           0
     12030 MEMB     84       POPC     C3       CTL2     0.800000E-01   12.0110           0
     12031 MEMB     84       POPC     HX       HAL2     0.900000E-01   1.00800           0
     12032 MEMB     84       POPC     HY       HAL2     0.900000E-01   1.00800           0
     12033 MEMB     84       POPC     O31      OSL     -0.490000       15.9994           0
     12034 MEMB     84       POPC     C31      CL       0.900000       12.0110           0
     12035 MEMB     84       POPC     O32      OBL     -0.630000       15.9994           0
     12036 MEMB     84       POPC     C32      CTL2    -0.220000       12.0110           0
     12037 MEMB     84       POPC     H2X      HAL2     0.900000E-01   1.00800           0
     12038 MEMB     84       POPC     H2Y      HAL2     0.900000E-01   1.00800           0
     12039 MEMB     84       POPC     C23      CTL2    -0.180000       12.0110           0
     12040 MEMB     84       POPC     H3R      HAL2     0.900000E-01   1.00800           0
     12041 MEMB     84       POPC     H3S      HAL2     0.900000E-01   1.00800           0
     12042 MEMB     84       POPC     C24      CTL2    -0.180000       12.0110           0
     12043 MEMB     84       POPC     H4R      HAL2     0.900000E-01   1.00800           0
     12044 MEMB     84       POPC     H4S      HAL2     0.900000E-01   1.00800           0
     12045 MEMB     84       POPC     C25      CTL2    -0.180000       12.0110           0
     12046 MEMB     84       POPC     H5R      HAL2     0.900000E-01   1.00800           0
     12047 MEMB     84       POPC     H5S      HAL2     0.900000E-01   1.00800           0
     12048 MEMB     84       POPC     C26      CTL2    -0.180000       12.0110           0
     12049 MEMB     84       POPC     H6R      HAL2     0.900000E-01   1.00800           0
     12050 MEMB     84       POPC     H6S      HAL2     0.900000E-01   1.00800           0
     12051 MEMB     84       POPC     C27      CTL2    -0.180000       12.0110           0
     12052 MEMB     84       POPC     H7R      HAL2     0.900000E-01   1.00800           0
     12053 MEMB     84       POPC     H7S      HAL2     0.900000E-01   1.00800           0
     12054 MEMB     84       POPC     C28      CTL2    -0.180000       12.0110           0
     12055 MEMB     84       POPC     H8R      HAL2     0.900000E-01   1.00800           0
     12056 MEMB     84       POPC     H8S      HAL2     0.900000E-01   1.00800           0
     12057 MEMB     84       POPC     C29      CEL1    -0.150000       12.0110           0
     12058 MEMB     84       POPC     H91      HEL1     0.150000       1.00800           0
     12059 MEMB     84       POPC     C210     CEL1    -0.150000       12.0110           0
     12060 MEMB     84       POPC     H101     HEL1     0.150000       1.00800           0
     12061 MEMB     84       POPC     C211     CTL2    -0.180000       12.0110           0
     12062 MEMB     84       POPC     H11R     HAL2     0.900000E-01   1.00800           0
     12063 MEMB     84       POPC     H11S     HAL2     0.900000E-01   1.00800           0
     12064 MEMB     84       POPC     C212     CTL2    -0.180000       12.0110           0
     12065 MEMB     84       POPC     H12R     HAL2     0.900000E-01   1.00800           0
     12066 MEMB     84       POPC     H12S     HAL2     0.900000E-01   1.00800           0
     12067 MEMB     84       POPC     C213     CTL2    -0.180000       12.0110           0
     12068 MEMB     84       POPC     H13R     HAL2     0.900000E-01   1.00800           0
     12069 MEMB     84       POPC     H13S     HAL2     0.900000E-01   1.00800           0
     12070 MEMB     84       POPC     C214     CTL2    -0.180000       12.0110           0
     12071 MEMB     84       POPC     H14R     HAL2     0.900000E-01   1.00800           0
     12072 MEMB     84       POPC     H14S     HAL2     0.900000E-01   1.00800           0
     12073 MEMB     84       POPC     C215     CTL2    -0.180000       12.0110           0
     12074 MEMB     84       POPC     H15R     HAL2     0.900000E-01   1.00800           0
     12075 MEMB     84       POPC     H15S     HAL2     0.900000E-01   1.00800           0
     12076 MEMB     84       POPC     C216     CTL2    -0.180000       12.0110           0
     12077 MEMB     84       POPC     H16R     HAL2     0.900000E-01   1.00800           0
     12078 MEMB     84       POPC     H16S     HAL2     0.900000E-01   1.00800           0
     12079 MEMB     84       POPC     C217     CTL2    -0.180000       12.0110           0
     12080 MEMB     84       POPC     H17R     HAL2     0.900000E-01   1.00800           0
     12081 MEMB     84       POPC     H17S     HAL2     0.900000E-01   1.00800           0
     12082 MEMB     84       POPC     C218     CTL3    -0.270000       12.0110           0
     12083 MEMB     84       POPC     H18R     HAL3     0.900000E-01   1.00800           0
     12084 MEMB     84       POPC     H18S     HAL3     0.900000E-01   1.00800           0
     12085 MEMB     84       POPC     H18T     HAL3     0.900000E-01   1.00800           0
     12086 MEMB     84       POPC     C33      CTL2    -0.180000       12.0110           0
     12087 MEMB     84       POPC     H3X      HAL2     0.900000E-01   1.00800           0
     12088 MEMB     84       POPC     H3Y      HAL2     0.900000E-01   1.00800           0
     12089 MEMB     84       POPC     C34      CTL2    -0.180000       12.0110           0
     12090 MEMB     84       POPC     H4X      HAL2     0.900000E-01   1.00800           0
     12091 MEMB     84       POPC     H4Y      HAL2     0.900000E-01   1.00800           0
     12092 MEMB     84       POPC     C35      CTL2    -0.180000       12.0110           0
     12093 MEMB     84       POPC     H5X      HAL2     0.900000E-01   1.00800           0
     12094 MEMB     84       POPC     H5Y      HAL2     0.900000E-01   1.00800           0
     12095 MEMB     84       POPC     C36      CTL2    -0.180000       12.0110           0
     12096 MEMB     84       POPC     H6X      HAL2     0.900000E-01   1.00800           0
     12097 MEMB     84       POPC     H6Y      HAL2     0.900000E-01   1.00800           0
     12098 MEMB     84       POPC     C37      CTL2    -0.180000       12.0110           0
     12099 MEMB     84       POPC     H7X      HAL2     0.900000E-01   1.00800           0
     12100 MEMB     84       POPC     H7Y      HAL2     0.900000E-01   1.00800           0
     12101 MEMB     84       POPC     C38      CTL2    -0.180000       12.0110           0
     12102 MEMB     84       POPC     H8X      HAL2     0.900000E-01   1.00800           0
     12103 MEMB     84       POPC     H8Y      HAL2     0.900000E-01   1.00800           0
     12104 MEMB     84       POPC     C39      CTL2    -0.180000       12.0110           0
     12105 MEMB     84       POPC     H9X      HAL2     0.900000E-01   1.00800           0
     12106 MEMB     84       POPC     H9Y      HAL2     0.900000E-01   1.00800           0
     12107 MEMB     84       POPC     C310     CTL2    -0.180000       12.0110           0
     12108 MEMB     84       POPC     H10X     HAL2     0.900000E-01   1.00800           0
     12109 MEMB     84       POPC     H10Y     HAL2     0.900000E-01   1.00800           0
     12110 MEMB     84       POPC     C311     CTL2    -0.180000       12.0110           0
     12111 MEMB     84       POPC     H11X     HAL2     0.900000E-01   1.00800           0
     12112 MEMB     84       POPC     H11Y     HAL2     0.900000E-01   1.00800           0
     12113 MEMB     84       POPC     C312     CTL2    -0.180000       12.0110           0
     12114 MEMB     84       POPC     H12X     HAL2     0.900000E-01   1.00800           0
     12115 MEMB     84       POPC     H12Y     HAL2     0.900000E-01   1.00800           0
     12116 MEMB     84       POPC     C313     CTL2    -0.180000       12.0110           0
     12117 MEMB     84       POPC     H13X     HAL2     0.900000E-01   1.00800           0
     12118 MEMB     84       POPC     H13Y     HAL2     0.900000E-01   1.00800           0
     12119 MEMB     84       POPC     C314     CTL2    -0.180000       12.0110           0
     12120 MEMB     84       POPC     H14X     HAL2     0.900000E-01   1.00800           0
     12121 MEMB     84       POPC     H14Y     HAL2     0.900000E-01   1.00800           0
     12122 MEMB     84       POPC     C315     CTL2    -0.180000       12.0110           0
     12123 MEMB     84       POPC     H15X     HAL2     0.900000E-01   1.00800           0
     12124 MEMB     84       POPC     H15Y     HAL2     0.900000E-01   1.00800           0
     12125 MEMB     84       POPC     C316     CTL3    -0.270000       12.0110           0
     12126 MEMB     84       POPC     H16X     HAL3     0.900000E-01   1.00800           0
     12127 MEMB     84       POPC     H16Y     HAL3     0.900000E-01   1.00800           0
     12128 MEMB     84       POPC     H16Z     HAL3     0.900000E-01   1.00800           0
     12129 MEMB     85       POPC     N        NTL     -0.600000       14.0070           0
     12130 MEMB     85       POPC     C12      CTL2    -0.100000       12.0110           0
     12131 MEMB     85       POPC     H12A     HL       0.250000       1.00800           0
     12132 MEMB     85       POPC     H12B     HL       0.250000       1.00800           0
     12133 MEMB     85       POPC     C13      CTL5    -0.350000       12.0110           0
     12134 MEMB     85       POPC     H13A     HL       0.250000       1.00800           0
     12135 MEMB     85       POPC     H13B     HL       0.250000       1.00800           0
     12136 MEMB     85       POPC     H13C     HL       0.250000       1.00800           0
     12137 MEMB     85       POPC     C14      CTL5    -0.350000       12.0110           0
     12138 MEMB     85       POPC     H14A     HL       0.250000       1.00800           0
     12139 MEMB     85       POPC     H14B     HL       0.250000       1.00800           0
     12140 MEMB     85       POPC     H14C     HL       0.250000       1.00800           0
     12141 MEMB     85       POPC     C15      CTL5    -0.350000       12.0110           0
     12142 MEMB     85       POPC     H15A     HL       0.250000       1.00800           0
     12143 MEMB     85       POPC     H15B     HL       0.250000       1.00800           0
     12144 MEMB     85       POPC     H15C     HL       0.250000       1.00800           0
     12145 MEMB     85       POPC     C11      CTL2    -0.800000E-01   12.0110           0
     12146 MEMB     85       POPC     H11A     HAL2     0.900000E-01   1.00800           0
     12147 MEMB     85       POPC     H11B     HAL2     0.900000E-01   1.00800           0
     12148 MEMB     85       POPC     P        PL        1.50000       30.9740           0
     12149 MEMB     85       POPC     O13      O2L     -0.780000       15.9994           0
     12150 MEMB     85       POPC     O14      O2L     -0.780000       15.9994           0
     12151 MEMB     85       POPC     O12      OSLP    -0.570000       15.9994           0
     12152 MEMB     85       POPC     O11      OSLP    -0.570000       15.9994           0
     12153 MEMB     85       POPC     C1       CTL2    -0.800000E-01   12.0110           0
     12154 MEMB     85       POPC     HA       HAL2     0.900000E-01   1.00800           0
     12155 MEMB     85       POPC     HB       HAL2     0.900000E-01   1.00800           0
     12156 MEMB     85       POPC     C2       CTL1     0.170000       12.0110           0
     12157 MEMB     85       POPC     HS       HAL1     0.900000E-01   1.00800           0
     12158 MEMB     85       POPC     O21      OSL     -0.490000       15.9994           0
     12159 MEMB     85       POPC     C21      CL       0.900000       12.0110           0
     12160 MEMB     85       POPC     O22      OBL     -0.630000       15.9994           0
     12161 MEMB     85       POPC     C22      CTL2    -0.220000       12.0110           0
     12162 MEMB     85       POPC     H2R      HAL2     0.900000E-01   1.00800           0
     12163 MEMB     85       POPC     H2S      HAL2     0.900000E-01   1.00800           0
     12164 MEMB     85       POPC     C3       CTL2     0.800000E-01   12.0110           0
     12165 MEMB     85       POPC     HX       HAL2     0.900000E-01   1.00800           0
     12166 MEMB     85       POPC     HY       HAL2     0.900000E-01   1.00800           0
     12167 MEMB     85       POPC     O31      OSL     -0.490000       15.9994           0
     12168 MEMB     85       POPC     C31      CL       0.900000       12.0110           0
     12169 MEMB     85       POPC     O32      OBL     -0.630000       15.9994           0
     12170 MEMB     85       POPC     C32      CTL2    -0.220000       12.0110           0
     12171 MEMB     85       POPC     H2X      HAL2     0.900000E-01   1.00800           0
     12172 MEMB     85       POPC     H2Y      HAL2     0.900000E-01   1.00800           0
     12173 MEMB     85       POPC     C23      CTL2    -0.180000       12.0110           0
     12174 MEMB     85       POPC     H3R      HAL2     0.900000E-01   1.00800           0
     12175 MEMB     85       POPC     H3S      HAL2     0.900000E-01   1.00800           0
     12176 MEMB     85       POPC     C24      CTL2    -0.180000       12.0110           0
     12177 MEMB     85       POPC     H4R      HAL2     0.900000E-01   1.00800           0
     12178 MEMB     85       POPC     H4S      HAL2     0.900000E-01   1.00800           0
     12179 MEMB     85       POPC     C25      CTL2    -0.180000       12.0110           0
     12180 MEMB     85       POPC     H5R      HAL2     0.900000E-01   1.00800           0
     12181 MEMB     85       POPC     H5S      HAL2     0.900000E-01   1.00800           0
     12182 MEMB     85       POPC     C26      CTL2    -0.180000       12.0110           0
     12183 MEMB     85       POPC     H6R      HAL2     0.900000E-01   1.00800           0
     12184 MEMB     85       POPC     H6S      HAL2     0.900000E-01   1.00800           0
     12185 MEMB     85       POPC     C27      CTL2    -0.180000       12.0110           0
     12186 MEMB     85       POPC     H7R      HAL2     0.900000E-01   1.00800           0
     12187 MEMB     85       POPC     H7S      HAL2     0.900000E-01   1.00800           0
     12188 MEMB     85       POPC     C28      CTL2    -0.180000       12.0110           0
     12189 MEMB     85       POPC     H8R      HAL2     0.900000E-01   1.00800           0
     12190 MEMB     85       POPC     H8S      HAL2     0.900000E-01   1.00800           0
     12191 MEMB     85       POPC     C29      CEL1    -0.150000       12.0110           0
     12192 MEMB     85       POPC     H91      HEL1     0.150000       1.00800           0
     12193 MEMB     85       POPC     C210     CEL1    -0.150000       12.0110           0
     12194 MEMB     85       POPC     H101     HEL1     0.150000       1.00800           0
     12195 MEMB     85       POPC     C211     CTL2    -0.180000       12.0110           0
     12196 MEMB     85       POPC     H11R     HAL2     0.900000E-01   1.00800           0
     12197 MEMB     85       POPC     H11S     HAL2     0.900000E-01   1.00800           0
     12198 MEMB     85       POPC     C212     CTL2    -0.180000       12.0110           0
     12199 MEMB     85       POPC     H12R     HAL2     0.900000E-01   1.00800           0
     12200 MEMB     85       POPC     H12S     HAL2     0.900000E-01   1.00800           0
     12201 MEMB     85       POPC     C213     CTL2    -0.180000       12.0110           0
     12202 MEMB     85       POPC     H13R     HAL2     0.900000E-01   1.00800           0
     12203 MEMB     85       POPC     H13S     HAL2     0.900000E-01   1.00800           0
     12204 MEMB     85       POPC     C214     CTL2    -0.180000       12.0110           0
     12205 MEMB     85       POPC     H14R     HAL2     0.900000E-01   1.00800           0
     12206 MEMB     85       POPC     H14S     HAL2     0.900000E-01   1.00800           0
     12207 MEMB     85       POPC     C215     CTL2    -0.180000       12.0110           0
     12208 MEMB     85       POPC     H15R     HAL2     0.900000E-01   1.00800           0
     12209 MEMB     85       POPC     H15S     HAL2     0.900000E-01   1.00800           0
     12210 MEMB     85       POPC     C216     CTL2    -0.180000       12.0110           0
     12211 MEMB     85       POPC     H16R     HAL2     0.900000E-01   1.00800           0
     12212 MEMB     85       POPC     H16S     HAL2     0.900000E-01   1.00800           0
     12213 MEMB     85       POPC     C217     CTL2    -0.180000       12.0110           0
     12214 MEMB     85       POPC     H17R     HAL2     0.900000E-01   1.00800           0
     12215 MEMB     85       POPC     H17S     HAL2     0.900000E-01   1.00800           0
     12216 MEMB     85       POPC     C218     CTL3    -0.270000       12.0110           0
     12217 MEMB     85       POPC     H18R     HAL3     0.900000E-01   1.00800           0
     12218 MEMB     85       POPC     H18S     HAL3     0.900000E-01   1.00800           0
     12219 MEMB     85       POPC     H18T     HAL3     0.900000E-01   1.00800           0
     12220 MEMB     85       POPC     C33      CTL2    -0.180000       12.0110           0
     12221 MEMB     85       POPC     H3X      HAL2     0.900000E-01   1.00800           0
     12222 MEMB     85       POPC     H3Y      HAL2     0.900000E-01   1.00800           0
     12223 MEMB     85       POPC     C34      CTL2    -0.180000       12.0110           0
     12224 MEMB     85       POPC     H4X      HAL2     0.900000E-01   1.00800           0
     12225 MEMB     85       POPC     H4Y      HAL2     0.900000E-01   1.00800           0
     12226 MEMB     85       POPC     C35      CTL2    -0.180000       12.0110           0
     12227 MEMB     85       POPC     H5X      HAL2     0.900000E-01   1.00800           0
     12228 MEMB     85       POPC     H5Y      HAL2     0.900000E-01   1.00800           0
     12229 MEMB     85       POPC     C36      CTL2    -0.180000       12.0110           0
     12230 MEMB     85       POPC     H6X      HAL2     0.900000E-01   1.00800           0
     12231 MEMB     85       POPC     H6Y      HAL2     0.900000E-01   1.00800           0
     12232 MEMB     85       POPC     C37      CTL2    -0.180000       12.0110           0
     12233 MEMB     85       POPC     H7X      HAL2     0.900000E-01   1.00800           0
     12234 MEMB     85       POPC     H7Y      HAL2     0.900000E-01   1.00800           0
     12235 MEMB     85       POPC     C38      CTL2    -0.180000       12.0110           0
     12236 MEMB     85       POPC     H8X      HAL2     0.900000E-01   1.00800           0
     12237 MEMB     85       POPC     H8Y      HAL2     0.900000E-01   1.00800           0
     12238 MEMB     85       POPC     C39      CTL2    -0.180000       12.0110           0
     12239 MEMB     85       POPC     H9X      HAL2     0.900000E-01   1.00800           0
     12240 MEMB     85       POPC     H9Y      HAL2     0.900000E-01   1.00800           0
     12241 MEMB     85       POPC     C310     CTL2    -0.180000       12.0110           0
     12242 MEMB     85       POPC     H10X     HAL2     0.900000E-01   1.00800           0
     12243 MEMB     85       POPC     H10Y     HAL2     0.900000E-01   1.00800           0
     12244 MEMB     85       POPC     C311     CTL2    -0.180000       12.0110           0
     12245 MEMB     85       POPC     H11X     HAL2     0.900000E-01   1.00800           0
     12246 MEMB     85       POPC     H11Y     HAL2     0.900000E-01   1.00800           0
     12247 MEMB     85       POPC     C312     CTL2    -0.180000       12.0110           0
     12248 MEMB     85       POPC     H12X     HAL2     0.900000E-01   1.00800           0
     12249 MEMB     85       POPC     H12Y     HAL2     0.900000E-01   1.00800           0
     12250 MEMB     85       POPC     C313     CTL2    -0.180000       12.0110           0
     12251 MEMB     85       POPC     H13X     HAL2     0.900000E-01   1.00800           0
     12252 MEMB     85       POPC     H13Y     HAL2     0.900000E-01   1.00800           0
     12253 MEMB     85       POPC     C314     CTL2    -0.180000       12.0110           0
     12254 MEMB     85       POPC     H14X     HAL2     0.900000E-01   1.00800           0
     12255 MEMB     85       POPC     H14Y     HAL2     0.900000E-01   1.00800           0
     12256 MEMB     85       POPC     C315     CTL2    -0.180000       12.0110           0
     12257 MEMB     85       POPC     H15X     HAL2     0.900000E-01   1.00800           0
     12258 MEMB     85       POPC     H15Y     HAL2     0.900000E-01   1.00800           0
     12259 MEMB     85       POPC     C316     CTL3    -0.270000       12.0110           0
     12260 MEMB     85       POPC     H16X     HAL3     0.900000E-01   1.00800           0
     12261 MEMB     85       POPC     H16Y     HAL3     0.900000E-01   1.00800           0
     12262 MEMB     85       POPC     H16Z     HAL3     0.900000E-01   1.00800           0
     12263 MEMB     86       POPC     N        NTL     -0.600000       14.0070           0
     12264 MEMB     86       POPC     C12      CTL2    -0.100000       12.0110           0
     12265 MEMB     86       POPC     H12A     HL       0.250000       1.00800           0
     12266 MEMB     86       POPC     H12B     HL       0.250000       1.00800           0
     12267 MEMB     86       POPC     C13      CTL5    -0.350000       12.0110           0
     12268 MEMB     86       POPC     H13A     HL       0.250000       1.00800           0
     12269 MEMB     86       POPC     H13B     HL       0.250000       1.00800           0
     12270 MEMB     86       POPC     H13C     HL       0.250000       1.00800           0
     12271 MEMB     86       POPC     C14      CTL5    -0.350000       12.0110           0
     12272 MEMB     86       POPC     H14A     HL       0.250000       1.00800           0
     12273 MEMB     86       POPC     H14B     HL       0.250000       1.00800           0
     12274 MEMB     86       POPC     H14C     HL       0.250000       1.00800           0
     12275 MEMB     86       POPC     C15      CTL5    -0.350000       12.0110           0
     12276 MEMB     86       POPC     H15A     HL       0.250000       1.00800           0
     12277 MEMB     86       POPC     H15B     HL       0.250000       1.00800           0
     12278 MEMB     86       POPC     H15C     HL       0.250000       1.00800           0
     12279 MEMB     86       POPC     C11      CTL2    -0.800000E-01   12.0110           0
     12280 MEMB     86       POPC     H11A     HAL2     0.900000E-01   1.00800           0
     12281 MEMB     86       POPC     H11B     HAL2     0.900000E-01   1.00800           0
     12282 MEMB     86       POPC     P        PL        1.50000       30.9740           0
     12283 MEMB     86       POPC     O13      O2L     -0.780000       15.9994           0
     12284 MEMB     86       POPC     O14      O2L     -0.780000       15.9994           0
     12285 MEMB     86       POPC     O12      OSLP    -0.570000       15.9994           0
     12286 MEMB     86       POPC     O11      OSLP    -0.570000       15.9994           0
     12287 MEMB     86       POPC     C1       CTL2    -0.800000E-01   12.0110           0
     12288 MEMB     86       POPC     HA       HAL2     0.900000E-01   1.00800           0
     12289 MEMB     86       POPC     HB       HAL2     0.900000E-01   1.00800           0
     12290 MEMB     86       POPC     C2       CTL1     0.170000       12.0110           0
     12291 MEMB     86       POPC     HS       HAL1     0.900000E-01   1.00800           0
     12292 MEMB     86       POPC     O21      OSL     -0.490000       15.9994           0
     12293 MEMB     86       POPC     C21      CL       0.900000       12.0110           0
     12294 MEMB     86       POPC     O22      OBL     -0.630000       15.9994           0
     12295 MEMB     86       POPC     C22      CTL2    -0.220000       12.0110           0
     12296 MEMB     86       POPC     H2R      HAL2     0.900000E-01   1.00800           0
     12297 MEMB     86       POPC     H2S      HAL2     0.900000E-01   1.00800           0
     12298 MEMB     86       POPC     C3       CTL2     0.800000E-01   12.0110           0
     12299 MEMB     86       POPC     HX       HAL2     0.900000E-01   1.00800           0
     12300 MEMB     86       POPC     HY       HAL2     0.900000E-01   1.00800           0
     12301 MEMB     86       POPC     O31      OSL     -0.490000       15.9994           0
     12302 MEMB     86       POPC     C31      CL       0.900000       12.0110           0
     12303 MEMB     86       POPC     O32      OBL     -0.630000       15.9994           0
     12304 MEMB     86       POPC     C32      CTL2    -0.220000       12.0110           0
     12305 MEMB     86       POPC     H2X      HAL2     0.900000E-01   1.00800           0
     12306 MEMB     86       POPC     H2Y      HAL2     0.900000E-01   1.00800           0
     12307 MEMB     86       POPC     C23      CTL2    -0.180000       12.0110           0
     12308 MEMB     86       POPC     H3R      HAL2     0.900000E-01   1.00800           0
     12309 MEMB     86       POPC     H3S      HAL2     0.900000E-01   1.00800           0
     12310 MEMB     86       POPC     C24      CTL2    -0.180000       12.0110           0
     12311 MEMB     86       POPC     H4R      HAL2     0.900000E-01   1.00800           0
     12312 MEMB     86       POPC     H4S      HAL2     0.900000E-01   1.00800           0
     12313 MEMB     86       POPC     C25      CTL2    -0.180000       12.0110           0
     12314 MEMB     86       POPC     H5R      HAL2     0.900000E-01   1.00800           0
     12315 MEMB     86       POPC     H5S      HAL2     0.900000E-01   1.00800           0
     12316 MEMB     86       POPC     C26      CTL2    -0.180000       12.0110           0
     12317 MEMB     86       POPC     H6R      HAL2     0.900000E-01   1.00800           0
     12318 MEMB     86       POPC     H6S      HAL2     0.900000E-01   1.00800           0
     12319 MEMB     86       POPC     C27      CTL2    -0.180000       12.0110           0
     12320 MEMB     86       POPC     H7R      HAL2     0.900000E-01   1.00800           0
     12321 MEMB     86       POPC     H7S      HAL2     0.900000E-01   1.00800           0
     12322 MEMB     86       POPC     C28      CTL2    -0.180000       12.0110           0
     12323 MEMB     86       POPC     H8R      HAL2     0.900000E-01   1.00800           0
     12324 MEMB     86       POPC     H8S      HAL2     0.900000E-01   1.00800           0
     12325 MEMB     86       POPC     C29      CEL1    -0.150000       12.0110           0
     12326 MEMB     86       POPC     H91      HEL1     0.150000       1.00800           0
     12327 MEMB     86       POPC     C210     CEL1    -0.150000       12.0110           0
     12328 MEMB     86       POPC     H101     HEL1     0.150000       1.00800           0
     12329 MEMB     86       POPC     C211     CTL2    -0.180000       12.0110           0
     12330 MEMB     86       POPC     H11R     HAL2     0.900000E-01   1.00800           0
     12331 MEMB     86       POPC     H11S     HAL2     0.900000E-01   1.00800           0
     12332 MEMB     86       POPC     C212     CTL2    -0.180000       12.0110           0
     12333 MEMB     86       POPC     H12R     HAL2     0.900000E-01   1.00800           0
     12334 MEMB     86       POPC     H12S     HAL2     0.900000E-01   1.00800           0
     12335 MEMB     86       POPC     C213     CTL2    -0.180000       12.0110           0
     12336 MEMB     86       POPC     H13R     HAL2     0.900000E-01   1.00800           0
     12337 MEMB     86       POPC     H13S     HAL2     0.900000E-01   1.00800           0
     12338 MEMB     86       POPC     C214     CTL2    -0.180000       12.0110           0
     12339 MEMB     86       POPC     H14R     HAL2     0.900000E-01   1.00800           0
     12340 MEMB     86       POPC     H14S     HAL2     0.900000E-01   1.00800           0
     12341 MEMB     86       POPC     C215     CTL2    -0.180000       12.0110           0
     12342 MEMB     86       POPC     H15R     HAL2     0.900000E-01   1.00800           0
     12343 MEMB     86       POPC     H15S     HAL2     0.900000E-01   1.00800           0
     12344 MEMB     86       POPC     C216     CTL2    -0.180000       12.0110           0
     12345 MEMB     86       POPC     H16R     HAL2     0.900000E-01   1.00800           0
     12346 MEMB     86       POPC     H16S     HAL2     0.900000E-01   1.00800           0
     12347 MEMB     86       POPC     C217     CTL2    -0.180000       12.0110           0
     12348 MEMB     86       POPC     H17R     HAL2     0.900000E-01   1.00800           0
     12349 MEMB     86       POPC     H17S     HAL2     0.900000E-01   1.00800           0
     12350 MEMB     86       POPC     C218     CTL3    -0.270000       12.0110           0
     12351 MEMB     86       POPC     H18R     HAL3     0.900000E-01   1.00800           0
     12352 MEMB     86       POPC     H18S     HAL3     0.900000E-01   1.00800           0
     12353 MEMB     86       POPC     H18T     HAL3     0.900000E-01   1.00800           0
     12354 MEMB     86       POPC     C33      CTL2    -0.180000       12.0110           0
     12355 MEMB     86       POPC     H3X      HAL2     0.900000E-01   1.00800           0
     12356 MEMB     86       POPC     H3Y      HAL2     0.900000E-01   1.00800           0
     12357 MEMB     86       POPC     C34      CTL2    -0.180000       12.0110           0
     12358 MEMB     86       POPC     H4X      HAL2     0.900000E-01   1.00800           0
     12359 MEMB     86       POPC     H4Y      HAL2     0.900000E-01   1.00800           0
     12360 MEMB     86       POPC     C35      CTL2    -0.180000       12.0110           0
     12361 MEMB     86       POPC     H5X      HAL2     0.900000E-01   1.00800           0
     12362 MEMB     86       POPC     H5Y      HAL2     0.900000E-01   1.00800           0
     12363 MEMB     86       POPC     C36      CTL2    -0.180000       12.0110           0
     12364 MEMB     86       POPC     H6X      HAL2     0.900000E-01   1.00800           0
     12365 MEMB     86       POPC     H6Y      HAL2     0.900000E-01   1.00800           0
     12366 MEMB     86       POPC     C37      CTL2    -0.180000       12.0110           0
     12367 MEMB     86       POPC     H7X      HAL2     0.900000E-01   1.00800           0
     12368 MEMB     86       POPC     H7Y      HAL2     0.900000E-01   1.00800           0
     12369 MEMB     86       POPC     C38      CTL2    -0.180000       12.0110           0
     12370 MEMB     86       POPC     H8X      HAL2     0.900000E-01   1.00800           0
     12371 MEMB     86       POPC     H8Y      HAL2     0.900000E-01   1.00800           0
     12372 MEMB     86       POPC     C39      CTL2    -0.180000       12.0110           0
     12373 MEMB     86       POPC     H9X      HAL2     0.900000E-01   1.00800           0
     12374 MEMB     86       POPC     H9Y      HAL2     0.900000E-01   1.00800           0
     12375 MEMB     86       POPC     C310     CTL2    -0.180000       12.0110           0
     12376 MEMB     86       POPC     H10X     HAL2     0.900000E-01   1.00800           0
     12377 MEMB     86       POPC     H10Y     HAL2     0.900000E-01   1.00800           0
     12378 MEMB     86       POPC     C311     CTL2    -0.180000       12.0110           0
     12379 MEMB     86       POPC     H11X     HAL2     0.900000E-01   1.00800           0
     12380 MEMB     86       POPC     H11Y     HAL2     0.900000E-01   1.00800           0
     12381 MEMB     86       POPC     C312     CTL2    -0.180000       12.0110           0
     12382 MEMB     86       POPC     H12X     HAL2     0.900000E-01   1.00800           0
     12383 MEMB     86       POPC     H12Y     HAL2     0.900000E-01   1.00800           0
     12384 MEMB     86       POPC     C313     CTL2    -0.180000       12.0110           0
     12385 MEMB     86       POPC     H13X     HAL2     0.900000E-01   1.00800           0
     12386 MEMB     86       POPC     H13Y     HAL2     0.900000E-01   1.00800           0
     12387 MEMB     86       POPC     C314     CTL2    -0.180000       12.0110           0
     12388 MEMB     86       POPC     H14X     HAL2     0.900000E-01   1.00800           0
     12389 MEMB     86       POPC     H14Y     HAL2     0.900000E-01   1.00800           0
     12390 MEMB     86       POPC     C315     CTL2    -0.180000       12.0110           0
     12391 MEMB     86       POPC     H15X     HAL2     0.900000E-01   1.00800           0
     12392 MEMB     86       POPC     H15Y     HAL2     0.900000E-01   1.00800           0
     12393 MEMB     86       POPC     C316     CTL3    -0.270000       12.0110           0
     12394 MEMB     86       POPC     H16X     HAL3     0.900000E-01   1.00800           0
     12395 MEMB     86       POPC     H16Y     HAL3     0.900000E-01   1.00800           0
     12396 MEMB     86       POPC     H16Z     HAL3     0.900000E-01   1.00800           0
     12397 MEMB     87       POPC     N        NTL     -0.600000       14.0070           0
     12398 MEMB     87       POPC     C12      CTL2    -0.100000       12.0110           0
     12399 MEMB     87       POPC     H12A     HL       0.250000       1.00800           0
     12400 MEMB     87       POPC     H12B     HL       0.250000       1.00800           0
     12401 MEMB     87       POPC     C13      CTL5    -0.350000       12.0110           0
     12402 MEMB     87       POPC     H13A     HL       0.250000       1.00800           0
     12403 MEMB     87       POPC     H13B     HL       0.250000       1.00800           0
     12404 MEMB     87       POPC     H13C     HL       0.250000       1.00800           0
     12405 MEMB     87       POPC     C14      CTL5    -0.350000       12.0110           0
     12406 MEMB     87       POPC     H14A     HL       0.250000       1.00800           0
     12407 MEMB     87       POPC     H14B     HL       0.250000       1.00800           0
     12408 MEMB     87       POPC     H14C     HL       0.250000       1.00800           0
     12409 MEMB     87       POPC     C15      CTL5    -0.350000       12.0110           0
     12410 MEMB     87       POPC     H15A     HL       0.250000       1.00800           0
     12411 MEMB     87       POPC     H15B     HL       0.250000       1.00800           0
     12412 MEMB     87       POPC     H15C     HL       0.250000       1.00800           0
     12413 MEMB     87       POPC     C11      CTL2    -0.800000E-01   12.0110           0
     12414 MEMB     87       POPC     H11A     HAL2     0.900000E-01   1.00800           0
     12415 MEMB     87       POPC     H11B     HAL2     0.900000E-01   1.00800           0
     12416 MEMB     87       POPC     P        PL        1.50000       30.9740           0
     12417 MEMB     87       POPC     O13      O2L     -0.780000       15.9994           0
     12418 MEMB     87       POPC     O14      O2L     -0.780000       15.9994           0
     12419 MEMB     87       POPC     O12      OSLP    -0.570000       15.9994           0
     12420 MEMB     87       POPC     O11      OSLP    -0.570000       15.9994           0
     12421 MEMB     87       POPC     C1       CTL2    -0.800000E-01   12.0110           0
     12422 MEMB     87       POPC     HA       HAL2     0.900000E-01   1.00800           0
     12423 MEMB     87       POPC     HB       HAL2     0.900000E-01   1.00800           0
     12424 MEMB     87       POPC     C2       CTL1     0.170000       12.0110           0
     12425 MEMB     87       POPC     HS       HAL1     0.900000E-01   1.00800           0
     12426 MEMB     87       POPC     O21      OSL     -0.490000       15.9994           0
     12427 MEMB     87       POPC     C21      CL       0.900000       12.0110           0
     12428 MEMB     87       POPC     O22      OBL     -0.630000       15.9994           0
     12429 MEMB     87       POPC     C22      CTL2    -0.220000       12.0110           0
     12430 MEMB     87       POPC     H2R      HAL2     0.900000E-01   1.00800           0
     12431 MEMB     87       POPC     H2S      HAL2     0.900000E-01   1.00800           0
     12432 MEMB     87       POPC     C3       CTL2     0.800000E-01   12.0110           0
     12433 MEMB     87       POPC     HX       HAL2     0.900000E-01   1.00800           0
     12434 MEMB     87       POPC     HY       HAL2     0.900000E-01   1.00800           0
     12435 MEMB     87       POPC     O31      OSL     -0.490000       15.9994           0
     12436 MEMB     87       POPC     C31      CL       0.900000       12.0110           0
     12437 MEMB     87       POPC     O32      OBL     -0.630000       15.9994           0
     12438 MEMB     87       POPC     C32      CTL2    -0.220000       12.0110           0
     12439 MEMB     87       POPC     H2X      HAL2     0.900000E-01   1.00800           0
     12440 MEMB     87       POPC     H2Y      HAL2     0.900000E-01   1.00800           0
     12441 MEMB     87       POPC     C23      CTL2    -0.180000       12.0110           0
     12442 MEMB     87       POPC     H3R      HAL2     0.900000E-01   1.00800           0
     12443 MEMB     87       POPC     H3S      HAL2     0.900000E-01   1.00800           0
     12444 MEMB     87       POPC     C24      CTL2    -0.180000       12.0110           0
     12445 MEMB     87       POPC     H4R      HAL2     0.900000E-01   1.00800           0
     12446 MEMB     87       POPC     H4S      HAL2     0.900000E-01   1.00800           0
     12447 MEMB     87       POPC     C25      CTL2    -0.180000       12.0110           0
     12448 MEMB     87       POPC     H5R      HAL2     0.900000E-01   1.00800           0
     12449 MEMB     87       POPC     H5S      HAL2     0.900000E-01   1.00800           0
     12450 MEMB     87       POPC     C26      CTL2    -0.180000       12.0110           0
     12451 MEMB     87       POPC     H6R      HAL2     0.900000E-01   1.00800           0
     12452 MEMB     87       POPC     H6S      HAL2     0.900000E-01   1.00800           0
     12453 MEMB     87       POPC     C27      CTL2    -0.180000       12.0110           0
     12454 MEMB     87       POPC     H7R      HAL2     0.900000E-01   1.00800           0
     12455 MEMB     87       POPC     H7S      HAL2     0.900000E-01   1.00800           0
     12456 MEMB     87       POPC     C28      CTL2    -0.180000       12.0110           0
     12457 MEMB     87       POPC     H8R      HAL2     0.900000E-01   1.00800           0
     12458 MEMB     87       POPC     H8S      HAL2     0.900000E-01   1.00800           0
     12459 MEMB     87       POPC     C29      CEL1    -0.150000       12.0110           0
     12460 MEMB     87       POPC     H91      HEL1     0.150000       1.00800           0
     12461 MEMB     87       POPC     C210     CEL1    -0.150000       12.0110           0
     12462 MEMB     87       POPC     H101     HEL1     0.150000       1.00800           0
     12463 MEMB     87       POPC     C211     CTL2    -0.180000       12.0110           0
     12464 MEMB     87       POPC     H11R     HAL2     0.900000E-01   1.00800           0
     12465 MEMB     87       POPC     H11S     HAL2     0.900000E-01   1.00800           0
     12466 MEMB     87       POPC     C212     CTL2    -0.180000       12.0110           0
     12467 MEMB     87       POPC     H12R     HAL2     0.900000E-01   1.00800           0
     12468 MEMB     87       POPC     H12S     HAL2     0.900000E-01   1.00800           0
     12469 MEMB     87       POPC     C213     CTL2    -0.180000       12.0110           0
     12470 MEMB     87       POPC     H13R     HAL2     0.900000E-01   1.00800           0
     12471 MEMB     87       POPC     H13S     HAL2     0.900000E-01   1.00800           0
     12472 MEMB     87       POPC     C214     CTL2    -0.180000       12.0110           0
     12473 MEMB     87       POPC     H14R     HAL2     0.900000E-01   1.00800           0
     12474 MEMB     87       POPC     H14S     HAL2     0.900000E-01   1.00800           0
     12475 MEMB     87       POPC     C215     CTL2    -0.180000       12.0110           0
     12476 MEMB     87       POPC     H15R     HAL2     0.900000E-01   1.00800           0
     12477 MEMB     87       POPC     H15S     HAL2     0.900000E-01   1.00800           0
     12478 MEMB     87       POPC     C216     CTL2    -0.180000       12.0110           0
     12479 MEMB     87       POPC     H16R     HAL2     0.900000E-01   1.00800           0
     12480 MEMB     87       POPC     H16S     HAL2     0.900000E-01   1.00800           0
     12481 MEMB     87       POPC     C217     CTL2    -0.180000       12.0110           0
     12482 MEMB     87       POPC     H17R     HAL2     0.900000E-01   1.00800           0
     12483 MEMB     87       POPC     H17S     HAL2     0.900000E-01   1.00800           0
     12484 MEMB     87       POPC     C218     CTL3    -0.270000       12.0110           0
     12485 MEMB     87       POPC     H18R     HAL3     0.900000E-01   1.00800           0
     12486 MEMB     87       POPC     H18S     HAL3     0.900000E-01   1.00800           0
     12487 MEMB     87       POPC     H18T     HAL3     0.900000E-01   1.00800           0
     12488 MEMB     87       POPC     C33      CTL2    -0.180000       12.0110           0
     12489 MEMB     87       POPC     H3X      HAL2     0.900000E-01   1.00800           0
     12490 MEMB     87       POPC     H3Y      HAL2     0.900000E-01   1.00800           0
     12491 MEMB     87       POPC     C34      CTL2    -0.180000       12.0110           0
     12492 MEMB     87       POPC     H4X      HAL2     0.900000E-01   1.00800           0
     12493 MEMB     87       POPC     H4Y      HAL2     0.900000E-01   1.00800           0
     12494 MEMB     87       POPC     C35      CTL2    -0.180000       12.0110           0
     12495 MEMB     87       POPC     H5X      HAL2     0.900000E-01   1.00800           0
     12496 MEMB     87       POPC     H5Y      HAL2     0.900000E-01   1.00800           0
     12497 MEMB     87       POPC     C36      CTL2    -0.180000       12.0110           0
     12498 MEMB     87       POPC     H6X      HAL2     0.900000E-01   1.00800           0
     12499 MEMB     87       POPC     H6Y      HAL2     0.900000E-01   1.00800           0
     12500 MEMB     87       POPC     C37      CTL2    -0.180000       12.0110           0
     12501 MEMB     87       POPC     H7X      HAL2     0.900000E-01   1.00800           0
     12502 MEMB     87       POPC     H7Y      HAL2     0.900000E-01   1.00800           0
     12503 MEMB     87       POPC     C38      CTL2    -0.180000       12.0110           0
     12504 MEMB     87       POPC     H8X      HAL2     0.900000E-01   1.00800           0
     12505 MEMB     87       POPC     H8Y      HAL2     0.900000E-01   1.00800           0
     12506 MEMB     87       POPC     C39      CTL2    -0.180000       12.0110           0
     12507 MEMB     87       POPC     H9X      HAL2     0.900000E-01   1.00800           0
     12508 MEMB     87       POPC     H9Y      HAL2     0.900000E-01   1.00800           0
     12509 MEMB     87       POPC     C310     CTL2    -0.180000       12.0110           0
     12510 MEMB     87       POPC     H10X     HAL2     0.900000E-01   1.00800           0
     12511 MEMB     87       POPC     H10Y     HAL2     0.900000E-01   1.00800           0
     12512 MEMB     87       POPC     C311     CTL2    -0.180000       12.0110           0
     12513 MEMB     87       POPC     H11X     HAL2     0.900000E-01   1.00800           0
     12514 MEMB     87       POPC     H11Y     HAL2     0.900000E-01   1.00800           0
     12515 MEMB     87       POPC     C312     CTL2    -0.180000       12.0110           0
     12516 MEMB     87       POPC     H12X     HAL2     0.900000E-01   1.00800           0
     12517 MEMB     87       POPC     H12Y     HAL2     0.900000E-01   1.00800           0
     12518 MEMB     87       POPC     C313     CTL2    -0.180000       12.0110           0
     12519 MEMB     87       POPC     H13X     HAL2     0.900000E-01   1.00800           0
     12520 MEMB     87       POPC     H13Y     HAL2     0.900000E-01   1.00800           0
     12521 MEMB     87       POPC     C314     CTL2    -0.180000       12.0110           0
     12522 MEMB     87       POPC     H14X     HAL2     0.900000E-01   1.00800           0
     12523 MEMB     87       POPC     H14Y     HAL2     0.900000E-01   1.00800           0
     12524 MEMB     87       POPC     C315     CTL2    -0.180000       12.0110           0
     12525 MEMB     87       POPC     H15X     HAL2     0.900000E-01   1.00800           0
     12526 MEMB     87       POPC     H15Y     HAL2     0.900000E-01   1.00800           0
     12527 MEMB     87       POPC     C316     CTL3    -0.270000       12.0110           0
     12528 MEMB     87       POPC     H16X     HAL3     0.900000E-01   1.00800           0
     12529 MEMB     87       POPC     H16Y     HAL3     0.900000E-01   1.00800           0
     12530 MEMB     87       POPC     H16Z     HAL3     0.900000E-01   1.00800           0
     12531 MEMB     88       POPC     N        NTL     -0.600000       14.0070           0
     12532 MEMB     88       POPC     C12      CTL2    -0.100000       12.0110           0
     12533 MEMB     88       POPC     H12A     HL       0.250000       1.00800           0
     12534 MEMB     88       POPC     H12B     HL       0.250000       1.00800           0
     12535 MEMB     88       POPC     C13      CTL5    -0.350000       12.0110           0
     12536 MEMB     88       POPC     H13A     HL       0.250000       1.00800           0
     12537 MEMB     88       POPC     H13B     HL       0.250000       1.00800           0
     12538 MEMB     88       POPC     H13C     HL       0.250000       1.00800           0
     12539 MEMB     88       POPC     C14      CTL5    -0.350000       12.0110           0
     12540 MEMB     88       POPC     H14A     HL       0.250000       1.00800           0
     12541 MEMB     88       POPC     H14B     HL       0.250000       1.00800           0
     12542 MEMB     88       POPC     H14C     HL       0.250000       1.00800           0
     12543 MEMB     88       POPC     C15      CTL5    -0.350000       12.0110           0
     12544 MEMB     88       POPC     H15A     HL       0.250000       1.00800           0
     12545 MEMB     88       POPC     H15B     HL       0.250000       1.00800           0
     12546 MEMB     88       POPC     H15C     HL       0.250000       1.00800           0
     12547 MEMB     88       POPC     C11      CTL2    -0.800000E-01   12.0110           0
     12548 MEMB     88       POPC     H11A     HAL2     0.900000E-01   1.00800           0
     12549 MEMB     88       POPC     H11B     HAL2     0.900000E-01   1.00800           0
     12550 MEMB     88       POPC     P        PL        1.50000       30.9740           0
     12551 MEMB     88       POPC     O13      O2L     -0.780000       15.9994           0
     12552 MEMB     88       POPC     O14      O2L     -0.780000       15.9994           0
     12553 MEMB     88       POPC     O12      OSLP    -0.570000       15.9994           0
     12554 MEMB     88       POPC     O11      OSLP    -0.570000       15.9994           0
     12555 MEMB     88       POPC     C1       CTL2    -0.800000E-01   12.0110           0
     12556 MEMB     88       POPC     HA       HAL2     0.900000E-01   1.00800           0
     12557 MEMB     88       POPC     HB       HAL2     0.900000E-01   1.00800           0
     12558 MEMB     88       POPC     C2       CTL1     0.170000       12.0110           0
     12559 MEMB     88       POPC     HS       HAL1     0.900000E-01   1.00800           0
     12560 MEMB     88       POPC     O21      OSL     -0.490000       15.9994           0
     12561 MEMB     88       POPC     C21      CL       0.900000       12.0110           0
     12562 MEMB     88       POPC     O22      OBL     -0.630000       15.9994           0
     12563 MEMB     88       POPC     C22      CTL2    -0.220000       12.0110           0
     12564 MEMB     88       POPC     H2R      HAL2     0.900000E-01   1.00800           0
     12565 MEMB     88       POPC     H2S      HAL2     0.900000E-01   1.00800           0
     12566 MEMB     88       POPC     C3       CTL2     0.800000E-01   12.0110           0
     12567 MEMB     88       POPC     HX       HAL2     0.900000E-01   1.00800           0
     12568 MEMB     88       POPC     HY       HAL2     0.900000E-01   1.00800           0
     12569 MEMB     88       POPC     O31      OSL     -0.490000       15.9994           0
     12570 MEMB     88       POPC     C31      CL       0.900000       12.0110           0
     12571 MEMB     88       POPC     O32      OBL     -0.630000       15.9994           0
     12572 MEMB     88       POPC     C32      CTL2    -0.220000       12.0110           0
     12573 MEMB     88       POPC     H2X      HAL2     0.900000E-01   1.00800           0
     12574 MEMB     88       POPC     H2Y      HAL2     0.900000E-01   1.00800           0
     12575 MEMB     88       POPC     C23      CTL2    -0.180000       12.0110           0
     12576 MEMB     88       POPC     H3R      HAL2     0.900000E-01   1.00800           0
     12577 MEMB     88       POPC     H3S      HAL2     0.900000E-01   1.00800           0
     12578 MEMB     88       POPC     C24      CTL2    -0.180000       12.0110           0
     12579 MEMB     88       POPC     H4R      HAL2     0.900000E-01   1.00800           0
     12580 MEMB     88       POPC     H4S      HAL2     0.900000E-01   1.00800           0
     12581 MEMB     88       POPC     C25      CTL2    -0.180000       12.0110           0
     12582 MEMB     88       POPC     H5R      HAL2     0.900000E-01   1.00800           0
     12583 MEMB     88       POPC     H5S      HAL2     0.900000E-01   1.00800           0
     12584 MEMB     88       POPC     C26      CTL2    -0.180000       12.0110           0
     12585 MEMB     88       POPC     H6R      HAL2     0.900000E-01   1.00800           0
     12586 MEMB     88       POPC     H6S      HAL2     0.900000E-01   1.00800           0
     12587 MEMB     88       POPC     C27      CTL2    -0.180000       12.0110           0
     12588 MEMB     88       POPC     H7R      HAL2     0.900000E-01   1.00800           0
     12589 MEMB     88       POPC     H7S      HAL2     0.900000E-01   1.00800           0
     12590 MEMB     88       POPC     C28      CTL2    -0.180000       12.0110           0
     12591 MEMB     88       POPC     H8R      HAL2     0.900000E-01   1.00800           0
     12592 MEMB     88       POPC     H8S      HAL2     0.900000E-01   1.00800           0
     12593 MEMB     88       POPC     C29      CEL1    -0.150000       12.0110           0
     12594 MEMB     88       POPC     H91      HEL1     0.150000       1.00800           0
     12595 MEMB     88       POPC     C210     CEL1    -0.150000       12.0110           0
     12596 MEMB     88       POPC     H101     HEL1     0.150000       1.00800           0
     12597 MEMB     88       POPC     C211     CTL2    -0.180000       12.0110           0
     12598 MEMB     88       POPC     H11R     HAL2     0.900000E-01   1.00800           0
     12599 MEMB     88       POPC     H11S     HAL2     0.900000E-01   1.00800           0
     12600 MEMB     88       POPC     C212     CTL2    -0.180000       12.0110           0
     12601 MEMB     88       POPC     H12R     HAL2     0.900000E-01   1.00800           0
     12602 MEMB     88       POPC     H12S     HAL2     0.900000E-01   1.00800           0
     12603 MEMB     88       POPC     C213     CTL2    -0.180000       12.0110           0
     12604 MEMB     88       POPC     H13R     HAL2     0.900000E-01   1.00800           0
     12605 MEMB     88       POPC     H13S     HAL2     0.900000E-01   1.00800           0
     12606 MEMB     88       POPC     C214     CTL2    -0.180000       12.0110           0
     12607 MEMB     88       POPC     H14R     HAL2     0.900000E-01   1.00800           0
     12608 MEMB     88       POPC     H14S     HAL2     0.900000E-01   1.00800           0
     12609 MEMB     88       POPC     C215     CTL2    -0.180000       12.0110           0
     12610 MEMB     88       POPC     H15R     HAL2     0.900000E-01   1.00800           0
     12611 MEMB     88       POPC     H15S     HAL2     0.900000E-01   1.00800           0
     12612 MEMB     88       POPC     C216     CTL2    -0.180000       12.0110           0
     12613 MEMB     88       POPC     H16R     HAL2     0.900000E-01   1.00800           0
     12614 MEMB     88       POPC     H16S     HAL2     0.900000E-01   1.00800           0
     12615 MEMB     88       POPC     C217     CTL2    -0.180000       12.0110           0
     12616 MEMB     88       POPC     H17R     HAL2     0.900000E-01   1.00800           0
     12617 MEMB     88       POPC     H17S     HAL2     0.900000E-01   1.00800           0
     12618 MEMB     88       POPC     C218     CTL3    -0.270000       12.0110           0
     12619 MEMB     88       POPC     H18R     HAL3     0.900000E-01   1.00800           0
     12620 MEMB     88       POPC     H18S     HAL3     0.900000E-01   1.00800           0
     12621 MEMB     88       POPC     H18T     HAL3     0.900000E-01   1.00800           0
     12622 MEMB     88       POPC     C33      CTL2    -0.180000       12.0110           0
     12623 MEMB     88       POPC     H3X      HAL2     0.900000E-01   1.00800           0
     12624 MEMB     88       POPC     H3Y      HAL2     0.900000E-01   1.00800           0
     12625 MEMB     88       POPC     C34      CTL2    -0.180000       12.0110           0
     12626 MEMB     88       POPC     H4X      HAL2     0.900000E-01   1.00800           0
     12627 MEMB     88       POPC     H4Y      HAL2     0.900000E-01   1.00800           0
     12628 MEMB     88       POPC     C35      CTL2    -0.180000       12.0110           0
     12629 MEMB     88       POPC     H5X      HAL2     0.900000E-01   1.00800           0
     12630 MEMB     88       POPC     H5Y      HAL2     0.900000E-01   1.00800           0
     12631 MEMB     88       POPC     C36      CTL2    -0.180000       12.0110           0
     12632 MEMB     88       POPC     H6X      HAL2     0.900000E-01   1.00800           0
     12633 MEMB     88       POPC     H6Y      HAL2     0.900000E-01   1.00800           0
     12634 MEMB     88       POPC     C37      CTL2    -0.180000       12.0110           0
     12635 MEMB     88       POPC     H7X      HAL2     0.900000E-01   1.00800           0
     12636 MEMB     88       POPC     H7Y      HAL2     0.900000E-01   1.00800           0
     12637 MEMB     88       POPC     C38      CTL2    -0.180000       12.0110           0
     12638 MEMB     88       POPC     H8X      HAL2     0.900000E-01   1.00800           0
     12639 MEMB     88       POPC     H8Y      HAL2     0.900000E-01   1.00800           0
     12640 MEMB     88       POPC     C39      CTL2    -0.180000       12.0110           0
     12641 MEMB     88       POPC     H9X      HAL2     0.900000E-01   1.00800           0
     12642 MEMB     88       POPC     H9Y      HAL2     0.900000E-01   1.00800           0
     12643 MEMB     88       POPC     C310     CTL2    -0.180000       12.0110           0
     12644 MEMB     88       POPC     H10X     HAL2     0.900000E-01   1.00800           0
     12645 MEMB     88       POPC     H10Y     HAL2     0.900000E-01   1.00800           0
     12646 MEMB     88       POPC     C311     CTL2    -0.180000       12.0110           0
     12647 MEMB     88       POPC     H11X     HAL2     0.900000E-01   1.00800           0
     12648 MEMB     88       POPC     H11Y     HAL2     0.900000E-01   1.00800           0
     12649 MEMB     88       POPC     C312     CTL2    -0.180000       12.0110           0
     12650 MEMB     88       POPC     H12X     HAL2     0.900000E-01   1.00800           0
     12651 MEMB     88       POPC     H12Y     HAL2     0.900000E-01   1.00800           0
     12652 MEMB     88       POPC     C313     CTL2    -0.180000       12.0110           0
     12653 MEMB     88       POPC     H13X     HAL2     0.900000E-01   1.00800           0
     12654 MEMB     88       POPC     H13Y     HAL2     0.900000E-01   1.00800           0
     12655 MEMB     88       POPC     C314     CTL2    -0.180000       12.0110           0
     12656 MEMB     88       POPC     H14X     HAL2     0.900000E-01   1.00800           0
     12657 MEMB     88       POPC     H14Y     HAL2     0.900000E-01   1.00800           0
     12658 MEMB     88       POPC     C315     CTL2    -0.180000       12.0110           0
     12659 MEMB     88       POPC     H15X     HAL2     0.900000E-01   1.00800           0
     12660 MEMB     88       POPC     H15Y     HAL2     0.900000E-01   1.00800           0
     12661 MEMB     88       POPC     C316     CTL3    -0.270000       12.0110           0
     12662 MEMB     88       POPC     H16X     HAL3     0.900000E-01   1.00800           0
     12663 MEMB     88       POPC     H16Y     HAL3     0.900000E-01   1.00800           0
     12664 MEMB     88       POPC     H16Z     HAL3     0.900000E-01   1.00800           0
     12665 MEMB     89       POPC     N        NTL     -0.600000       14.0070           0
     12666 MEMB     89       POPC     C12      CTL2    -0.100000       12.0110           0
     12667 MEMB     89       POPC     H12A     HL       0.250000       1.00800           0
     12668 MEMB     89       POPC     H12B     HL       0.250000       1.00800           0
     12669 MEMB     89       POPC     C13      CTL5    -0.350000       12.0110           0
     12670 MEMB     89       POPC     H13A     HL       0.250000       1.00800           0
     12671 MEMB     89       POPC     H13B     HL       0.250000       1.00800           0
     12672 MEMB     89       POPC     H13C     HL       0.250000       1.00800           0
     12673 MEMB     89       POPC     C14      CTL5    -0.350000       12.0110           0
     12674 MEMB     89       POPC     H14A     HL       0.250000       1.00800           0
     12675 MEMB     89       POPC     H14B     HL       0.250000       1.00800           0
     12676 MEMB     89       POPC     H14C     HL       0.250000       1.00800           0
     12677 MEMB     89       POPC     C15      CTL5    -0.350000       12.0110           0
     12678 MEMB     89       POPC     H15A     HL       0.250000       1.00800           0
     12679 MEMB     89       POPC     H15B     HL       0.250000       1.00800           0
     12680 MEMB     89       POPC     H15C     HL       0.250000       1.00800           0
     12681 MEMB     89       POPC     C11      CTL2    -0.800000E-01   12.0110           0
     12682 MEMB     89       POPC     H11A     HAL2     0.900000E-01   1.00800           0
     12683 MEMB     89       POPC     H11B     HAL2     0.900000E-01   1.00800           0
     12684 MEMB     89       POPC     P        PL        1.50000       30.9740           0
     12685 MEMB     89       POPC     O13      O2L     -0.780000       15.9994           0
     12686 MEMB     89       POPC     O14      O2L     -0.780000       15.9994           0
     12687 MEMB     89       POPC     O12      OSLP    -0.570000       15.9994           0
     12688 MEMB     89       POPC     O11      OSLP    -0.570000       15.9994           0
     12689 MEMB     89       POPC     C1       CTL2    -0.800000E-01   12.0110           0
     12690 MEMB     89       POPC     HA       HAL2     0.900000E-01   1.00800           0
     12691 MEMB     89       POPC     HB       HAL2     0.900000E-01   1.00800           0
     12692 MEMB     89       POPC     C2       CTL1     0.170000       12.0110           0
     12693 MEMB     89       POPC     HS       HAL1     0.900000E-01   1.00800           0
     12694 MEMB     89       POPC     O21      OSL     -0.490000       15.9994           0
     12695 MEMB     89       POPC     C21      CL       0.900000       12.0110           0
     12696 MEMB     89       POPC     O22      OBL     -0.630000       15.9994           0
     12697 MEMB     89       POPC     C22      CTL2    -0.220000       12.0110           0
     12698 MEMB     89       POPC     H2R      HAL2     0.900000E-01   1.00800           0
     12699 MEMB     89       POPC     H2S      HAL2     0.900000E-01   1.00800           0
     12700 MEMB     89       POPC     C3       CTL2     0.800000E-01   12.0110           0
     12701 MEMB     89       POPC     HX       HAL2     0.900000E-01   1.00800           0
     12702 MEMB     89       POPC     HY       HAL2     0.900000E-01   1.00800           0
     12703 MEMB     89       POPC     O31      OSL     -0.490000       15.9994           0
     12704 MEMB     89       POPC     C31      CL       0.900000       12.0110           0
     12705 MEMB     89       POPC     O32      OBL     -0.630000       15.9994           0
     12706 MEMB     89       POPC     C32      CTL2    -0.220000       12.0110           0
     12707 MEMB     89       POPC     H2X      HAL2     0.900000E-01   1.00800           0
     12708 MEMB     89       POPC     H2Y      HAL2     0.900000E-01   1.00800           0
     12709 MEMB     89       POPC     C23      CTL2    -0.180000       12.0110           0
     12710 MEMB     89       POPC     H3R      HAL2     0.900000E-01   1.00800           0
     12711 MEMB     89       POPC     H3S      HAL2     0.900000E-01   1.00800           0
     12712 MEMB     89       POPC     C24      CTL2    -0.180000       12.0110           0
     12713 MEMB     89       POPC     H4R      HAL2     0.900000E-01   1.00800           0
     12714 MEMB     89       POPC     H4S      HAL2     0.900000E-01   1.00800           0
     12715 MEMB     89       POPC     C25      CTL2    -0.180000       12.0110           0
     12716 MEMB     89       POPC     H5R      HAL2     0.900000E-01   1.00800           0
     12717 MEMB     89       POPC     H5S      HAL2     0.900000E-01   1.00800           0
     12718 MEMB     89       POPC     C26      CTL2    -0.180000       12.0110           0
     12719 MEMB     89       POPC     H6R      HAL2     0.900000E-01   1.00800           0
     12720 MEMB     89       POPC     H6S      HAL2     0.900000E-01   1.00800           0
     12721 MEMB     89       POPC     C27      CTL2    -0.180000       12.0110           0
     12722 MEMB     89       POPC     H7R      HAL2     0.900000E-01   1.00800           0
     12723 MEMB     89       POPC     H7S      HAL2     0.900000E-01   1.00800           0
     12724 MEMB     89       POPC     C28      CTL2    -0.180000       12.0110           0
     12725 MEMB     89       POPC     H8R      HAL2     0.900000E-01   1.00800           0
     12726 MEMB     89       POPC     H8S      HAL2     0.900000E-01   1.00800           0
     12727 MEMB     89       POPC     C29      CEL1    -0.150000       12.0110           0
     12728 MEMB     89       POPC     H91      HEL1     0.150000       1.00800           0
     12729 MEMB     89       POPC     C210     CEL1    -0.150000       12.0110           0
     12730 MEMB     89       POPC     H101     HEL1     0.150000       1.00800           0
     12731 MEMB     89       POPC     C211     CTL2    -0.180000       12.0110           0
     12732 MEMB     89       POPC     H11R     HAL2     0.900000E-01   1.00800           0
     12733 MEMB     89       POPC     H11S     HAL2     0.900000E-01   1.00800           0
     12734 MEMB     89       POPC     C212     CTL2    -0.180000       12.0110           0
     12735 MEMB     89       POPC     H12R     HAL2     0.900000E-01   1.00800           0
     12736 MEMB     89       POPC     H12S     HAL2     0.900000E-01   1.00800           0
     12737 MEMB     89       POPC     C213     CTL2    -0.180000       12.0110           0
     12738 MEMB     89       POPC     H13R     HAL2     0.900000E-01   1.00800           0
     12739 MEMB     89       POPC     H13S     HAL2     0.900000E-01   1.00800           0
     12740 MEMB     89       POPC     C214     CTL2    -0.180000       12.0110           0
     12741 MEMB     89       POPC     H14R     HAL2     0.900000E-01   1.00800           0
     12742 MEMB     89       POPC     H14S     HAL2     0.900000E-01   1.00800           0
     12743 MEMB     89       POPC     C215     CTL2    -0.180000       12.0110           0
     12744 MEMB     89       POPC     H15R     HAL2     0.900000E-01   1.00800           0
     12745 MEMB     89       POPC     H15S     HAL2     0.900000E-01   1.00800           0
     12746 MEMB     89       POPC     C216     CTL2    -0.180000       12.0110           0
     12747 MEMB     89       POPC     H16R     HAL2     0.900000E-01   1.00800           0
     12748 MEMB     89       POPC     H16S     HAL2     0.900000E-01   1.00800           0
     12749 MEMB     89       POPC     C217     CTL2    -0.180000       12.0110           0
     12750 MEMB     89       POPC     H17R     HAL2     0.900000E-01   1.00800           0
     12751 MEMB     89       POPC     H17S     HAL2     0.900000E-01   1.00800           0
     12752 MEMB     89       POPC     C218     CTL3    -0.270000       12.0110           0
     12753 MEMB     89       POPC     H18R     HAL3     0.900000E-01   1.00800           0
     12754 MEMB     89       POPC     H18S     HAL3     0.900000E-01   1.00800           0
     12755 MEMB     89       POPC     H18T     HAL3     0.900000E-01   1.00800           0
     12756 MEMB     89       POPC     C33      CTL2    -0.180000       12.0110           0
     12757 MEMB     89       POPC     H3X      HAL2     0.900000E-01   1.00800           0
     12758 MEMB     89       POPC     H3Y      HAL2     0.900000E-01   1.00800           0
     12759 MEMB     89       POPC     C34      CTL2    -0.180000       12.0110           0
     12760 MEMB     89       POPC     H4X      HAL2     0.900000E-01   1.00800           0
     12761 MEMB     89       POPC     H4Y      HAL2     0.900000E-01   1.00800           0
     12762 MEMB     89       POPC     C35      CTL2    -0.180000       12.0110           0
     12763 MEMB     89       POPC     H5X      HAL2     0.900000E-01   1.00800           0
     12764 MEMB     89       POPC     H5Y      HAL2     0.900000E-01   1.00800           0
     12765 MEMB     89       POPC     C36      CTL2    -0.180000       12.0110           0
     12766 MEMB     89       POPC     H6X      HAL2     0.900000E-01   1.00800           0
     12767 MEMB     89       POPC     H6Y      HAL2     0.900000E-01   1.00800           0
     12768 MEMB     89       POPC     C37      CTL2    -0.180000       12.0110           0
     12769 MEMB     89       POPC     H7X      HAL2     0.900000E-01   1.00800           0
     12770 MEMB     89       POPC     H7Y      HAL2     0.900000E-01   1.00800           0
     12771 MEMB     89       POPC     C38      CTL2    -0.180000       12.0110           0
     12772 MEMB     89       POPC     H8X      HAL2     0.900000E-01   1.00800           0
     12773 MEMB     89       POPC     H8Y      HAL2     0.900000E-01   1.00800           0
     12774 MEMB     89       POPC     C39      CTL2    -0.180000       12.0110           0
     12775 MEMB     89       POPC     H9X      HAL2     0.900000E-01   1.00800           0
     12776 MEMB     89       POPC     H9Y      HAL2     0.900000E-01   1.00800           0
     12777 MEMB     89       POPC     C310     CTL2    -0.180000       12.0110           0
     12778 MEMB     89       POPC     H10X     HAL2     0.900000E-01   1.00800           0
     12779 MEMB     89       POPC     H10Y     HAL2     0.900000E-01   1.00800           0
     12780 MEMB     89       POPC     C311     CTL2    -0.180000       12.0110           0
     12781 MEMB     89       POPC     H11X     HAL2     0.900000E-01   1.00800           0
     12782 MEMB     89       POPC     H11Y     HAL2     0.900000E-01   1.00800           0
     12783 MEMB     89       POPC     C312     CTL2    -0.180000       12.0110           0
     12784 MEMB     89       POPC     H12X     HAL2     0.900000E-01   1.00800           0
     12785 MEMB     89       POPC     H12Y     HAL2     0.900000E-01   1.00800           0
     12786 MEMB     89       POPC     C313     CTL2    -0.180000       12.0110           0
     12787 MEMB     89       POPC     H13X     HAL2     0.900000E-01   1.00800           0
     12788 MEMB     89       POPC     H13Y     HAL2     0.900000E-01   1.00800           0
     12789 MEMB     89       POPC     C314     CTL2    -0.180000       12.0110           0
     12790 MEMB     89       POPC     H14X     HAL2     0.900000E-01   1.00800           0
     12791 MEMB     89       POPC     H14Y     HAL2     0.900000E-01   1.00800           0
     12792 MEMB     89       POPC     C315     CTL2    -0.180000       12.0110           0
     12793 MEMB     89       POPC     H15X     HAL2     0.900000E-01   1.00800           0
     12794 MEMB     89       POPC     H15Y     HAL2     0.900000E-01   1.00800           0
     12795 MEMB     89       POPC     C316     CTL3    -0.270000       12.0110           0
     12796 MEMB     89       POPC     H16X     HAL3     0.900000E-01   1.00800           0
     12797 MEMB     89       POPC     H16Y     HAL3     0.900000E-01   1.00800           0
     12798 MEMB     89       POPC     H16Z     HAL3     0.900000E-01   1.00800           0
     12799 MEMB     90       POPC     N        NTL     -0.600000       14.0070           0
     12800 MEMB     90       POPC     C12      CTL2    -0.100000       12.0110           0
     12801 MEMB     90       POPC     H12A     HL       0.250000       1.00800           0
     12802 MEMB     90       POPC     H12B     HL       0.250000       1.00800           0
     12803 MEMB     90       POPC     C13      CTL5    -0.350000       12.0110           0
     12804 MEMB     90       POPC     H13A     HL       0.250000       1.00800           0
     12805 MEMB     90       POPC     H13B     HL       0.250000       1.00800           0
     12806 MEMB     90       POPC     H13C     HL       0.250000       1.00800           0
     12807 MEMB     90       POPC     C14      CTL5    -0.350000       12.0110           0
     12808 MEMB     90       POPC     H14A     HL       0.250000       1.00800           0
     12809 MEMB     90       POPC     H14B     HL       0.250000       1.00800           0
     12810 MEMB     90       POPC     H14C     HL       0.250000       1.00800           0
     12811 MEMB     90       POPC     C15      CTL5    -0.350000       12.0110           0
     12812 MEMB     90       POPC     H15A     HL       0.250000       1.00800           0
     12813 MEMB     90       POPC     H15B     HL       0.250000       1.00800           0
     12814 MEMB     90       POPC     H15C     HL       0.250000       1.00800           0
     12815 MEMB     90       POPC     C11      CTL2    -0.800000E-01   12.0110           0
     12816 MEMB     90       POPC     H11A     HAL2     0.900000E-01   1.00800           0
     12817 MEMB     90       POPC     H11B     HAL2     0.900000E-01   1.00800           0
     12818 MEMB     90       POPC     P        PL        1.50000       30.9740           0
     12819 MEMB     90       POPC     O13      O2L     -0.780000       15.9994           0
     12820 MEMB     90       POPC     O14      O2L     -0.780000       15.9994           0
     12821 MEMB     90       POPC     O12      OSLP    -0.570000       15.9994           0
     12822 MEMB     90       POPC     O11      OSLP    -0.570000       15.9994           0
     12823 MEMB     90       POPC     C1       CTL2    -0.800000E-01   12.0110           0
     12824 MEMB     90       POPC     HA       HAL2     0.900000E-01   1.00800           0
     12825 MEMB     90       POPC     HB       HAL2     0.900000E-01   1.00800           0
     12826 MEMB     90       POPC     C2       CTL1     0.170000       12.0110           0
     12827 MEMB     90       POPC     HS       HAL1     0.900000E-01   1.00800           0
     12828 MEMB     90       POPC     O21      OSL     -0.490000       15.9994           0
     12829 MEMB     90       POPC     C21      CL       0.900000       12.0110           0
     12830 MEMB     90       POPC     O22      OBL     -0.630000       15.9994           0
     12831 MEMB     90       POPC     C22      CTL2    -0.220000       12.0110           0
     12832 MEMB     90       POPC     H2R      HAL2     0.900000E-01   1.00800           0
     12833 MEMB     90       POPC     H2S      HAL2     0.900000E-01   1.00800           0
     12834 MEMB     90       POPC     C3       CTL2     0.800000E-01   12.0110           0
     12835 MEMB     90       POPC     HX       HAL2     0.900000E-01   1.00800           0
     12836 MEMB     90       POPC     HY       HAL2     0.900000E-01   1.00800           0
     12837 MEMB     90       POPC     O31      OSL     -0.490000       15.9994           0
     12838 MEMB     90       POPC     C31      CL       0.900000       12.0110           0
     12839 MEMB     90       POPC     O32      OBL     -0.630000       15.9994           0
     12840 MEMB     90       POPC     C32      CTL2    -0.220000       12.0110           0
     12841 MEMB     90       POPC     H2X      HAL2     0.900000E-01   1.00800           0
     12842 MEMB     90       POPC     H2Y      HAL2     0.900000E-01   1.00800           0
     12843 MEMB     90       POPC     C23      CTL2    -0.180000       12.0110           0
     12844 MEMB     90       POPC     H3R      HAL2     0.900000E-01   1.00800           0
     12845 MEMB     90       POPC     H3S      HAL2     0.900000E-01   1.00800           0
     12846 MEMB     90       POPC     C24      CTL2    -0.180000       12.0110           0
     12847 MEMB     90       POPC     H4R      HAL2     0.900000E-01   1.00800           0
     12848 MEMB     90       POPC     H4S      HAL2     0.900000E-01   1.00800           0
     12849 MEMB     90       POPC     C25      CTL2    -0.180000       12.0110           0
     12850 MEMB     90       POPC     H5R      HAL2     0.900000E-01   1.00800           0
     12851 MEMB     90       POPC     H5S      HAL2     0.900000E-01   1.00800           0
     12852 MEMB     90       POPC     C26      CTL2    -0.180000       12.0110           0
     12853 MEMB     90       POPC     H6R      HAL2     0.900000E-01   1.00800           0
     12854 MEMB     90       POPC     H6S      HAL2     0.900000E-01   1.00800           0
     12855 MEMB     90       POPC     C27      CTL2    -0.180000       12.0110           0
     12856 MEMB     90       POPC     H7R      HAL2     0.900000E-01   1.00800           0
     12857 MEMB     90       POPC     H7S      HAL2     0.900000E-01   1.00800           0
     12858 MEMB     90       POPC     C28      CTL2    -0.180000       12.0110           0
     12859 MEMB     90       POPC     H8R      HAL2     0.900000E-01   1.00800           0
     12860 MEMB     90       POPC     H8S      HAL2     0.900000E-01   1.00800           0
     12861 MEMB     90       POPC     C29      CEL1    -0.150000       12.0110           0
     12862 MEMB     90       POPC     H91      HEL1     0.150000       1.00800           0
     12863 MEMB     90       POPC     C210     CEL1    -0.150000       12.0110           0
     12864 MEMB     90       POPC     H101     HEL1     0.150000       1.00800           0
     12865 MEMB     90       POPC     C211     CTL2    -0.180000       12.0110           0
     12866 MEMB     90       POPC     H11R     HAL2     0.900000E-01   1.00800           0
     12867 MEMB     90       POPC     H11S     HAL2     0.900000E-01   1.00800           0
     12868 MEMB     90       POPC     C212     CTL2    -0.180000       12.0110           0
     12869 MEMB     90       POPC     H12R     HAL2     0.900000E-01   1.00800           0
     12870 MEMB     90       POPC     H12S     HAL2     0.900000E-01   1.00800           0
     12871 MEMB     90       POPC     C213     CTL2    -0.180000       12.0110           0
     12872 MEMB     90       POPC     H13R     HAL2     0.900000E-01   1.00800           0
     12873 MEMB     90       POPC     H13S     HAL2     0.900000E-01   1.00800           0
     12874 MEMB     90       POPC     C214     CTL2    -0.180000       12.0110           0
     12875 MEMB     90       POPC     H14R     HAL2     0.900000E-01   1.00800           0
     12876 MEMB     90       POPC     H14S     HAL2     0.900000E-01   1.00800           0
     12877 MEMB     90       POPC     C215     CTL2    -0.180000       12.0110           0
     12878 MEMB     90       POPC     H15R     HAL2     0.900000E-01   1.00800           0
     12879 MEMB     90       POPC     H15S     HAL2     0.900000E-01   1.00800           0
     12880 MEMB     90       POPC     C216     CTL2    -0.180000       12.0110           0
     12881 MEMB     90       POPC     H16R     HAL2     0.900000E-01   1.00800           0
     12882 MEMB     90       POPC     H16S     HAL2     0.900000E-01   1.00800           0
     12883 MEMB     90       POPC     C217     CTL2    -0.180000       12.0110           0
     12884 MEMB     90       POPC     H17R     HAL2     0.900000E-01   1.00800           0
     12885 MEMB     90       POPC     H17S     HAL2     0.900000E-01   1.00800           0
     12886 MEMB     90       POPC     C218     CTL3    -0.270000       12.0110           0
     12887 MEMB     90       POPC     H18R     HAL3     0.900000E-01   1.00800           0
     12888 MEMB     90       POPC     H18S     HAL3     0.900000E-01   1.00800           0
     12889 MEMB     90       POPC     H18T     HAL3     0.900000E-01   1.00800           0
     12890 MEMB     90       POPC     C33      CTL2    -0.180000       12.0110           0
     12891 MEMB     90       POPC     H3X      HAL2     0.900000E-01   1.00800           0
     12892 MEMB     90       POPC     H3Y      HAL2     0.900000E-01   1.00800           0
     12893 MEMB     90       POPC     C34      CTL2    -0.180000       12.0110           0
     12894 MEMB     90       POPC     H4X      HAL2     0.900000E-01   1.00800           0
     12895 MEMB     90       POPC     H4Y      HAL2     0.900000E-01   1.00800           0
     12896 MEMB     90       POPC     C35      CTL2    -0.180000       12.0110           0
     12897 MEMB     90       POPC     H5X      HAL2     0.900000E-01   1.00800           0
     12898 MEMB     90       POPC     H5Y      HAL2     0.900000E-01   1.00800           0
     12899 MEMB     90       POPC     C36      CTL2    -0.180000       12.0110           0
     12900 MEMB     90       POPC     H6X      HAL2     0.900000E-01   1.00800           0
     12901 MEMB     90       POPC     H6Y      HAL2     0.900000E-01   1.00800           0
     12902 MEMB     90       POPC     C37      CTL2    -0.180000       12.0110           0
     12903 MEMB     90       POPC     H7X      HAL2     0.900000E-01   1.00800           0
     12904 MEMB     90       POPC     H7Y      HAL2     0.900000E-01   1.00800           0
     12905 MEMB     90       POPC     C38      CTL2    -0.180000       12.0110           0
     12906 MEMB     90       POPC     H8X      HAL2     0.900000E-01   1.00800           0
     12907 MEMB     90       POPC     H8Y      HAL2     0.900000E-01   1.00800           0
     12908 MEMB     90       POPC     C39      CTL2    -0.180000       12.0110           0
     12909 MEMB     90       POPC     H9X      HAL2     0.900000E-01   1.00800           0
     12910 MEMB     90       POPC     H9Y      HAL2     0.900000E-01   1.00800           0
     12911 MEMB     90       POPC     C310     CTL2    -0.180000       12.0110           0
     12912 MEMB     90       POPC     H10X     HAL2     0.900000E-01   1.00800           0
     12913 MEMB     90       POPC     H10Y     HAL2     0.900000E-01   1.00800           0
     12914 MEMB     90       POPC     C311     CTL2    -0.180000       12.0110           0
     12915 MEMB     90       POPC     H11X     HAL2     0.900000E-01   1.00800           0
     12916 MEMB     90       POPC     H11Y     HAL2     0.900000E-01   1.00800           0
     12917 MEMB     90       POPC     C312     CTL2    -0.180000       12.0110           0
     12918 MEMB     90       POPC     H12X     HAL2     0.900000E-01   1.00800           0
     12919 MEMB     90       POPC     H12Y     HAL2     0.900000E-01   1.00800           0
     12920 MEMB     90       POPC     C313     CTL2    -0.180000       12.0110           0
     12921 MEMB     90       POPC     H13X     HAL2     0.900000E-01   1.00800           0
     12922 MEMB     90       POPC     H13Y     HAL2     0.900000E-01   1.00800           0
     12923 MEMB     90       POPC     C314     CTL2    -0.180000       12.0110           0
     12924 MEMB     90       POPC     H14X     HAL2     0.900000E-01   1.00800           0
     12925 MEMB     90       POPC     H14Y     HAL2     0.900000E-01   1.00800           0
     12926 MEMB     90       POPC     C315     CTL2    -0.180000       12.0110           0
     12927 MEMB     90       POPC     H15X     HAL2     0.900000E-01   1.00800           0
     12928 MEMB     90       POPC     H15Y     HAL2     0.900000E-01   1.00800           0
     12929 MEMB     90       POPC     C316     CTL3    -0.270000       12.0110           0
     12930 MEMB     90       POPC     H16X     HAL3     0.900000E-01   1.00800           0
     12931 MEMB     90       POPC     H16Y     HAL3     0.900000E-01   1.00800           0
     12932 MEMB     90       POPC     H16Z     HAL3     0.900000E-01   1.00800           0
     12933 MEMB     91       POPC     N        NTL     -0.600000       14.0070           0
     12934 MEMB     91       POPC     C12      CTL2    -0.100000       12.0110           0
     12935 MEMB     91       POPC     H12A     HL       0.250000       1.00800           0
     12936 MEMB     91       POPC     H12B     HL       0.250000       1.00800           0
     12937 MEMB     91       POPC     C13      CTL5    -0.350000       12.0110           0
     12938 MEMB     91       POPC     H13A     HL       0.250000       1.00800           0
     12939 MEMB     91       POPC     H13B     HL       0.250000       1.00800           0
     12940 MEMB     91       POPC     H13C     HL       0.250000       1.00800           0
     12941 MEMB     91       POPC     C14      CTL5    -0.350000       12.0110           0
     12942 MEMB     91       POPC     H14A     HL       0.250000       1.00800           0
     12943 MEMB     91       POPC     H14B     HL       0.250000       1.00800           0
     12944 MEMB     91       POPC     H14C     HL       0.250000       1.00800           0
     12945 MEMB     91       POPC     C15      CTL5    -0.350000       12.0110           0
     12946 MEMB     91       POPC     H15A     HL       0.250000       1.00800           0
     12947 MEMB     91       POPC     H15B     HL       0.250000       1.00800           0
     12948 MEMB     91       POPC     H15C     HL       0.250000       1.00800           0
     12949 MEMB     91       POPC     C11      CTL2    -0.800000E-01   12.0110           0
     12950 MEMB     91       POPC     H11A     HAL2     0.900000E-01   1.00800           0
     12951 MEMB     91       POPC     H11B     HAL2     0.900000E-01   1.00800           0
     12952 MEMB     91       POPC     P        PL        1.50000       30.9740           0
     12953 MEMB     91       POPC     O13      O2L     -0.780000       15.9994           0
     12954 MEMB     91       POPC     O14      O2L     -0.780000       15.9994           0
     12955 MEMB     91       POPC     O12      OSLP    -0.570000       15.9994           0
     12956 MEMB     91       POPC     O11      OSLP    -0.570000       15.9994           0
     12957 MEMB     91       POPC     C1       CTL2    -0.800000E-01   12.0110           0
     12958 MEMB     91       POPC     HA       HAL2     0.900000E-01   1.00800           0
     12959 MEMB     91       POPC     HB       HAL2     0.900000E-01   1.00800           0
     12960 MEMB     91       POPC     C2       CTL1     0.170000       12.0110           0
     12961 MEMB     91       POPC     HS       HAL1     0.900000E-01   1.00800           0
     12962 MEMB     91       POPC     O21      OSL     -0.490000       15.9994           0
     12963 MEMB     91       POPC     C21      CL       0.900000       12.0110           0
     12964 MEMB     91       POPC     O22      OBL     -0.630000       15.9994           0
     12965 MEMB     91       POPC     C22      CTL2    -0.220000       12.0110           0
     12966 MEMB     91       POPC     H2R      HAL2     0.900000E-01   1.00800           0
     12967 MEMB     91       POPC     H2S      HAL2     0.900000E-01   1.00800           0
     12968 MEMB     91       POPC     C3       CTL2     0.800000E-01   12.0110           0
     12969 MEMB     91       POPC     HX       HAL2     0.900000E-01   1.00800           0
     12970 MEMB     91       POPC     HY       HAL2     0.900000E-01   1.00800           0
     12971 MEMB     91       POPC     O31      OSL     -0.490000       15.9994           0
     12972 MEMB     91       POPC     C31      CL       0.900000       12.0110           0
     12973 MEMB     91       POPC     O32      OBL     -0.630000       15.9994           0
     12974 MEMB     91       POPC     C32      CTL2    -0.220000       12.0110           0
     12975 MEMB     91       POPC     H2X      HAL2     0.900000E-01   1.00800           0
     12976 MEMB     91       POPC     H2Y      HAL2     0.900000E-01   1.00800           0
     12977 MEMB     91       POPC     C23      CTL2    -0.180000       12.0110           0
     12978 MEMB     91       POPC     H3R      HAL2     0.900000E-01   1.00800           0
     12979 MEMB     91       POPC     H3S      HAL2     0.900000E-01   1.00800           0
     12980 MEMB     91       POPC     C24      CTL2    -0.180000       12.0110           0
     12981 MEMB     91       POPC     H4R      HAL2     0.900000E-01   1.00800           0
     12982 MEMB     91       POPC     H4S      HAL2     0.900000E-01   1.00800           0
     12983 MEMB     91       POPC     C25      CTL2    -0.180000       12.0110           0
     12984 MEMB     91       POPC     H5R      HAL2     0.900000E-01   1.00800           0
     12985 MEMB     91       POPC     H5S      HAL2     0.900000E-01   1.00800           0
     12986 MEMB     91       POPC     C26      CTL2    -0.180000       12.0110           0
     12987 MEMB     91       POPC     H6R      HAL2     0.900000E-01   1.00800           0
     12988 MEMB     91       POPC     H6S      HAL2     0.900000E-01   1.00800           0
     12989 MEMB     91       POPC     C27      CTL2    -0.180000       12.0110           0
     12990 MEMB     91       POPC     H7R      HAL2     0.900000E-01   1.00800           0
     12991 MEMB     91       POPC     H7S      HAL2     0.900000E-01   1.00800           0
     12992 MEMB     91       POPC     C28      CTL2    -0.180000       12.0110           0
     12993 MEMB     91       POPC     H8R      HAL2     0.900000E-01   1.00800           0
     12994 MEMB     91       POPC     H8S      HAL2     0.900000E-01   1.00800           0
     12995 MEMB     91       POPC     C29      CEL1    -0.150000       12.0110           0
     12996 MEMB     91       POPC     H91      HEL1     0.150000       1.00800           0
     12997 MEMB     91       POPC     C210     CEL1    -0.150000       12.0110           0
     12998 MEMB     91       POPC     H101     HEL1     0.150000       1.00800           0
     12999 MEMB     91       POPC     C211     CTL2    -0.180000       12.0110           0
     13000 MEMB     91       POPC     H11R     HAL2     0.900000E-01   1.00800           0
     13001 MEMB     91       POPC     H11S     HAL2     0.900000E-01   1.00800           0
     13002 MEMB     91       POPC     C212     CTL2    -0.180000       12.0110           0
     13003 MEMB     91       POPC     H12R     HAL2     0.900000E-01   1.00800           0
     13004 MEMB     91       POPC     H12S     HAL2     0.900000E-01   1.00800           0
     13005 MEMB     91       POPC     C213     CTL2    -0.180000       12.0110           0
     13006 MEMB     91       POPC     H13R     HAL2     0.900000E-01   1.00800           0
     13007 MEMB     91       POPC     H13S     HAL2     0.900000E-01   1.00800           0
     13008 MEMB     91       POPC     C214     CTL2    -0.180000       12.0110           0
     13009 MEMB     91       POPC     H14R     HAL2     0.900000E-01   1.00800           0
     13010 MEMB     91       POPC     H14S     HAL2     0.900000E-01   1.00800           0
     13011 MEMB     91       POPC     C215     CTL2    -0.180000       12.0110           0
     13012 MEMB     91       POPC     H15R     HAL2     0.900000E-01   1.00800           0
     13013 MEMB     91       POPC     H15S     HAL2     0.900000E-01   1.00800           0
     13014 MEMB     91       POPC     C216     CTL2    -0.180000       12.0110           0
     13015 MEMB     91       POPC     H16R     HAL2     0.900000E-01   1.00800           0
     13016 MEMB     91       POPC     H16S     HAL2     0.900000E-01   1.00800           0
     13017 MEMB     91       POPC     C217     CTL2    -0.180000       12.0110           0
     13018 MEMB     91       POPC     H17R     HAL2     0.900000E-01   1.00800           0
     13019 MEMB     91       POPC     H17S     HAL2     0.900000E-01   1.00800           0
     13020 MEMB     91       POPC     C218     CTL3    -0.270000       12.0110           0
     13021 MEMB     91       POPC     H18R     HAL3     0.900000E-01   1.00800           0
     13022 MEMB     91       POPC     H18S     HAL3     0.900000E-01   1.00800           0
     13023 MEMB     91       POPC     H18T     HAL3     0.900000E-01   1.00800           0
     13024 MEMB     91       POPC     C33      CTL2    -0.180000       12.0110           0
     13025 MEMB     91       POPC     H3X      HAL2     0.900000E-01   1.00800           0
     13026 MEMB     91       POPC     H3Y      HAL2     0.900000E-01   1.00800           0
     13027 MEMB     91       POPC     C34      CTL2    -0.180000       12.0110           0
     13028 MEMB     91       POPC     H4X      HAL2     0.900000E-01   1.00800           0
     13029 MEMB     91       POPC     H4Y      HAL2     0.900000E-01   1.00800           0
     13030 MEMB     91       POPC     C35      CTL2    -0.180000       12.0110           0
     13031 MEMB     91       POPC     H5X      HAL2     0.900000E-01   1.00800           0
     13032 MEMB     91       POPC     H5Y      HAL2     0.900000E-01   1.00800           0
     13033 MEMB     91       POPC     C36      CTL2    -0.180000       12.0110           0
     13034 MEMB     91       POPC     H6X      HAL2     0.900000E-01   1.00800           0
     13035 MEMB     91       POPC     H6Y      HAL2     0.900000E-01   1.00800           0
     13036 MEMB     91       POPC     C37      CTL2    -0.180000       12.0110           0
     13037 MEMB     91       POPC     H7X      HAL2     0.900000E-01   1.00800           0
     13038 MEMB     91       POPC     H7Y      HAL2     0.900000E-01   1.00800           0
     13039 MEMB     91       POPC     C38      CTL2    -0.180000       12.0110           0
     13040 MEMB     91       POPC     H8X      HAL2     0.900000E-01   1.00800           0
     13041 MEMB     91       POPC     H8Y      HAL2     0.900000E-01   1.00800           0
     13042 MEMB     91       POPC     C39      CTL2    -0.180000       12.0110           0
     13043 MEMB     91       POPC     H9X      HAL2     0.900000E-01   1.00800           0
     13044 MEMB     91       POPC     H9Y      HAL2     0.900000E-01   1.00800           0
     13045 MEMB     91       POPC     C310     CTL2    -0.180000       12.0110           0
     13046 MEMB     91       POPC     H10X     HAL2     0.900000E-01   1.00800           0
     13047 MEMB     91       POPC     H10Y     HAL2     0.900000E-01   1.00800           0
     13048 MEMB     91       POPC     C311     CTL2    -0.180000       12.0110           0
     13049 MEMB     91       POPC     H11X     HAL2     0.900000E-01   1.00800           0
     13050 MEMB     91       POPC     H11Y     HAL2     0.900000E-01   1.00800           0
     13051 MEMB     91       POPC     C312     CTL2    -0.180000       12.0110           0
     13052 MEMB     91       POPC     H12X     HAL2     0.900000E-01   1.00800           0
     13053 MEMB     91       POPC     H12Y     HAL2     0.900000E-01   1.00800           0
     13054 MEMB     91       POPC     C313     CTL2    -0.180000       12.0110           0
     13055 MEMB     91       POPC     H13X     HAL2     0.900000E-01   1.00800           0
     13056 MEMB     91       POPC     H13Y     HAL2     0.900000E-01   1.00800           0
     13057 MEMB     91       POPC     C314     CTL2    -0.180000       12.0110           0
     13058 MEMB     91       POPC     H14X     HAL2     0.900000E-01   1.00800           0
     13059 MEMB     91       POPC     H14Y     HAL2     0.900000E-01   1.00800           0
     13060 MEMB     91       POPC     C315     CTL2    -0.180000       12.0110           0
     13061 MEMB     91       POPC     H15X     HAL2     0.900000E-01   1.00800           0
     13062 MEMB     91       POPC     H15Y     HAL2     0.900000E-01   1.00800           0
     13063 MEMB     91       POPC     C316     CTL3    -0.270000       12.0110           0
     13064 MEMB     91       POPC     H16X     HAL3     0.900000E-01   1.00800           0
     13065 MEMB     91       POPC     H16Y     HAL3     0.900000E-01   1.00800           0
     13066 MEMB     91       POPC     H16Z     HAL3     0.900000E-01   1.00800           0
     13067 MEMB     92       POPC     N        NTL     -0.600000       14.0070           0
     13068 MEMB     92       POPC     C12      CTL2    -0.100000       12.0110           0
     13069 MEMB     92       POPC     H12A     HL       0.250000       1.00800           0
     13070 MEMB     92       POPC     H12B     HL       0.250000       1.00800           0
     13071 MEMB     92       POPC     C13      CTL5    -0.350000       12.0110           0
     13072 MEMB     92       POPC     H13A     HL       0.250000       1.00800           0
     13073 MEMB     92       POPC     H13B     HL       0.250000       1.00800           0
     13074 MEMB     92       POPC     H13C     HL       0.250000       1.00800           0
     13075 MEMB     92       POPC     C14      CTL5    -0.350000       12.0110           0
     13076 MEMB     92       POPC     H14A     HL       0.250000       1.00800           0
     13077 MEMB     92       POPC     H14B     HL       0.250000       1.00800           0
     13078 MEMB     92       POPC     H14C     HL       0.250000       1.00800           0
     13079 MEMB     92       POPC     C15      CTL5    -0.350000       12.0110           0
     13080 MEMB     92       POPC     H15A     HL       0.250000       1.00800           0
     13081 MEMB     92       POPC     H15B     HL       0.250000       1.00800           0
     13082 MEMB     92       POPC     H15C     HL       0.250000       1.00800           0
     13083 MEMB     92       POPC     C11      CTL2    -0.800000E-01   12.0110           0
     13084 MEMB     92       POPC     H11A     HAL2     0.900000E-01   1.00800           0
     13085 MEMB     92       POPC     H11B     HAL2     0.900000E-01   1.00800           0
     13086 MEMB     92       POPC     P        PL        1.50000       30.9740           0
     13087 MEMB     92       POPC     O13      O2L     -0.780000       15.9994           0
     13088 MEMB     92       POPC     O14      O2L     -0.780000       15.9994           0
     13089 MEMB     92       POPC     O12      OSLP    -0.570000       15.9994           0
     13090 MEMB     92       POPC     O11      OSLP    -0.570000       15.9994           0
     13091 MEMB     92       POPC     C1       CTL2    -0.800000E-01   12.0110           0
     13092 MEMB     92       POPC     HA       HAL2     0.900000E-01   1.00800           0
     13093 MEMB     92       POPC     HB       HAL2     0.900000E-01   1.00800           0
     13094 MEMB     92       POPC     C2       CTL1     0.170000       12.0110           0
     13095 MEMB     92       POPC     HS       HAL1     0.900000E-01   1.00800           0
     13096 MEMB     92       POPC     O21      OSL     -0.490000       15.9994           0
     13097 MEMB     92       POPC     C21      CL       0.900000       12.0110           0
     13098 MEMB     92       POPC     O22      OBL     -0.630000       15.9994           0
     13099 MEMB     92       POPC     C22      CTL2    -0.220000       12.0110           0
     13100 MEMB     92       POPC     H2R      HAL2     0.900000E-01   1.00800           0
     13101 MEMB     92       POPC     H2S      HAL2     0.900000E-01   1.00800           0
     13102 MEMB     92       POPC     C3       CTL2     0.800000E-01   12.0110           0
     13103 MEMB     92       POPC     HX       HAL2     0.900000E-01   1.00800           0
     13104 MEMB     92       POPC     HY       HAL2     0.900000E-01   1.00800           0
     13105 MEMB     92       POPC     O31      OSL     -0.490000       15.9994           0
     13106 MEMB     92       POPC     C31      CL       0.900000       12.0110           0
     13107 MEMB     92       POPC     O32      OBL     -0.630000       15.9994           0
     13108 MEMB     92       POPC     C32      CTL2    -0.220000       12.0110           0
     13109 MEMB     92       POPC     H2X      HAL2     0.900000E-01   1.00800           0
     13110 MEMB     92       POPC     H2Y      HAL2     0.900000E-01   1.00800           0
     13111 MEMB     92       POPC     C23      CTL2    -0.180000       12.0110           0
     13112 MEMB     92       POPC     H3R      HAL2     0.900000E-01   1.00800           0
     13113 MEMB     92       POPC     H3S      HAL2     0.900000E-01   1.00800           0
     13114 MEMB     92       POPC     C24      CTL2    -0.180000       12.0110           0
     13115 MEMB     92       POPC     H4R      HAL2     0.900000E-01   1.00800           0
     13116 MEMB     92       POPC     H4S      HAL2     0.900000E-01   1.00800           0
     13117 MEMB     92       POPC     C25      CTL2    -0.180000       12.0110           0
     13118 MEMB     92       POPC     H5R      HAL2     0.900000E-01   1.00800           0
     13119 MEMB     92       POPC     H5S      HAL2     0.900000E-01   1.00800           0
     13120 MEMB     92       POPC     C26      CTL2    -0.180000       12.0110           0
     13121 MEMB     92       POPC     H6R      HAL2     0.900000E-01   1.00800           0
     13122 MEMB     92       POPC     H6S      HAL2     0.900000E-01   1.00800           0
     13123 MEMB     92       POPC     C27      CTL2    -0.180000       12.0110           0
     13124 MEMB     92       POPC     H7R      HAL2     0.900000E-01   1.00800           0
     13125 MEMB     92       POPC     H7S      HAL2     0.900000E-01   1.00800           0
     13126 MEMB     92       POPC     C28      CTL2    -0.180000       12.0110           0
     13127 MEMB     92       POPC     H8R      HAL2     0.900000E-01   1.00800           0
     13128 MEMB     92       POPC     H8S      HAL2     0.900000E-01   1.00800           0
     13129 MEMB     92       POPC     C29      CEL1    -0.150000       12.0110           0
     13130 MEMB     92       POPC     H91      HEL1     0.150000       1.00800           0
     13131 MEMB     92       POPC     C210     CEL1    -0.150000       12.0110           0
     13132 MEMB     92       POPC     H101     HEL1     0.150000       1.00800           0
     13133 MEMB     92       POPC     C211     CTL2    -0.180000       12.0110           0
     13134 MEMB     92       POPC     H11R     HAL2     0.900000E-01   1.00800           0
     13135 MEMB     92       POPC     H11S     HAL2     0.900000E-01   1.00800           0
     13136 MEMB     92       POPC     C212     CTL2    -0.180000       12.0110           0
     13137 MEMB     92       POPC     H12R     HAL2     0.900000E-01   1.00800           0
     13138 MEMB     92       POPC     H12S     HAL2     0.900000E-01   1.00800           0
     13139 MEMB     92       POPC     C213     CTL2    -0.180000       12.0110           0
     13140 MEMB     92       POPC     H13R     HAL2     0.900000E-01   1.00800           0
     13141 MEMB     92       POPC     H13S     HAL2     0.900000E-01   1.00800           0
     13142 MEMB     92       POPC     C214     CTL2    -0.180000       12.0110           0
     13143 MEMB     92       POPC     H14R     HAL2     0.900000E-01   1.00800           0
     13144 MEMB     92       POPC     H14S     HAL2     0.900000E-01   1.00800           0
     13145 MEMB     92       POPC     C215     CTL2    -0.180000       12.0110           0
     13146 MEMB     92       POPC     H15R     HAL2     0.900000E-01   1.00800           0
     13147 MEMB     92       POPC     H15S     HAL2     0.900000E-01   1.00800           0
     13148 MEMB     92       POPC     C216     CTL2    -0.180000       12.0110           0
     13149 MEMB     92       POPC     H16R     HAL2     0.900000E-01   1.00800           0
     13150 MEMB     92       POPC     H16S     HAL2     0.900000E-01   1.00800           0
     13151 MEMB     92       POPC     C217     CTL2    -0.180000       12.0110           0
     13152 MEMB     92       POPC     H17R     HAL2     0.900000E-01   1.00800           0
     13153 MEMB     92       POPC     H17S     HAL2     0.900000E-01   1.00800           0
     13154 MEMB     92       POPC     C218     CTL3    -0.270000       12.0110           0
     13155 MEMB     92       POPC     H18R     HAL3     0.900000E-01   1.00800           0
     13156 MEMB     92       POPC     H18S     HAL3     0.900000E-01   1.00800           0
     13157 MEMB     92       POPC     H18T     HAL3     0.900000E-01   1.00800           0
     13158 MEMB     92       POPC     C33      CTL2    -0.180000       12.0110           0
     13159 MEMB     92       POPC     H3X      HAL2     0.900000E-01   1.00800           0
     13160 MEMB     92       POPC     H3Y      HAL2     0.900000E-01   1.00800           0
     13161 MEMB     92       POPC     C34      CTL2    -0.180000       12.0110           0
     13162 MEMB     92       POPC     H4X      HAL2     0.900000E-01   1.00800           0
     13163 MEMB     92       POPC     H4Y      HAL2     0.900000E-01   1.00800           0
     13164 MEMB     92       POPC     C35      CTL2    -0.180000       12.0110           0
     13165 MEMB     92       POPC     H5X      HAL2     0.900000E-01   1.00800           0
     13166 MEMB     92       POPC     H5Y      HAL2     0.900000E-01   1.00800           0
     13167 MEMB     92       POPC     C36      CTL2    -0.180000       12.0110           0
     13168 MEMB     92       POPC     H6X      HAL2     0.900000E-01   1.00800           0
     13169 MEMB     92       POPC     H6Y      HAL2     0.900000E-01   1.00800           0
     13170 MEMB     92       POPC     C37      CTL2    -0.180000       12.0110           0
     13171 MEMB     92       POPC     H7X      HAL2     0.900000E-01   1.00800           0
     13172 MEMB     92       POPC     H7Y      HAL2     0.900000E-01   1.00800           0
     13173 MEMB     92       POPC     C38      CTL2    -0.180000       12.0110           0
     13174 MEMB     92       POPC     H8X      HAL2     0.900000E-01   1.00800           0
     13175 MEMB     92       POPC     H8Y      HAL2     0.900000E-01   1.00800           0
     13176 MEMB     92       POPC     C39      CTL2    -0.180000       12.0110           0
     13177 MEMB     92       POPC     H9X      HAL2     0.900000E-01   1.00800           0
     13178 MEMB     92       POPC     H9Y      HAL2     0.900000E-01   1.00800           0
     13179 MEMB     92       POPC     C310     CTL2    -0.180000       12.0110           0
     13180 MEMB     92       POPC     H10X     HAL2     0.900000E-01   1.00800           0
     13181 MEMB     92       POPC     H10Y     HAL2     0.900000E-01   1.00800           0
     13182 MEMB     92       POPC     C311     CTL2    -0.180000       12.0110           0
     13183 MEMB     92       POPC     H11X     HAL2     0.900000E-01   1.00800           0
     13184 MEMB     92       POPC     H11Y     HAL2     0.900000E-01   1.00800           0
     13185 MEMB     92       POPC     C312     CTL2    -0.180000       12.0110           0
     13186 MEMB     92       POPC     H12X     HAL2     0.900000E-01   1.00800           0
     13187 MEMB     92       POPC     H12Y     HAL2     0.900000E-01   1.00800           0
     13188 MEMB     92       POPC     C313     CTL2    -0.180000       12.0110           0
     13189 MEMB     92       POPC     H13X     HAL2     0.900000E-01   1.00800           0
     13190 MEMB     92       POPC     H13Y     HAL2     0.900000E-01   1.00800           0
     13191 MEMB     92       POPC     C314     CTL2    -0.180000       12.0110           0
     13192 MEMB     92       POPC     H14X     HAL2     0.900000E-01   1.00800           0
     13193 MEMB     92       POPC     H14Y     HAL2     0.900000E-01   1.00800           0
     13194 MEMB     92       POPC     C315     CTL2    -0.180000       12.0110           0
     13195 MEMB     92       POPC     H15X     HAL2     0.900000E-01   1.00800           0
     13196 MEMB     92       POPC     H15Y     HAL2     0.900000E-01   1.00800           0
     13197 MEMB     92       POPC     C316     CTL3    -0.270000       12.0110           0
     13198 MEMB     92       POPC     H16X     HAL3     0.900000E-01   1.00800           0
     13199 MEMB     92       POPC     H16Y     HAL3     0.900000E-01   1.00800           0
     13200 MEMB     92       POPC     H16Z     HAL3     0.900000E-01   1.00800           0
     13201 MEMB     93       POPC     N        NTL     -0.600000       14.0070           0
     13202 MEMB     93       POPC     C12      CTL2    -0.100000       12.0110           0
     13203 MEMB     93       POPC     H12A     HL       0.250000       1.00800           0
     13204 MEMB     93       POPC     H12B     HL       0.250000       1.00800           0
     13205 MEMB     93       POPC     C13      CTL5    -0.350000       12.0110           0
     13206 MEMB     93       POPC     H13A     HL       0.250000       1.00800           0
     13207 MEMB     93       POPC     H13B     HL       0.250000       1.00800           0
     13208 MEMB     93       POPC     H13C     HL       0.250000       1.00800           0
     13209 MEMB     93       POPC     C14      CTL5    -0.350000       12.0110           0
     13210 MEMB     93       POPC     H14A     HL       0.250000       1.00800           0
     13211 MEMB     93       POPC     H14B     HL       0.250000       1.00800           0
     13212 MEMB     93       POPC     H14C     HL       0.250000       1.00800           0
     13213 MEMB     93       POPC     C15      CTL5    -0.350000       12.0110           0
     13214 MEMB     93       POPC     H15A     HL       0.250000       1.00800           0
     13215 MEMB     93       POPC     H15B     HL       0.250000       1.00800           0
     13216 MEMB     93       POPC     H15C     HL       0.250000       1.00800           0
     13217 MEMB     93       POPC     C11      CTL2    -0.800000E-01   12.0110           0
     13218 MEMB     93       POPC     H11A     HAL2     0.900000E-01   1.00800           0
     13219 MEMB     93       POPC     H11B     HAL2     0.900000E-01   1.00800           0
     13220 MEMB     93       POPC     P        PL        1.50000       30.9740           0
     13221 MEMB     93       POPC     O13      O2L     -0.780000       15.9994           0
     13222 MEMB     93       POPC     O14      O2L     -0.780000       15.9994           0
     13223 MEMB     93       POPC     O12      OSLP    -0.570000       15.9994           0
     13224 MEMB     93       POPC     O11      OSLP    -0.570000       15.9994           0
     13225 MEMB     93       POPC     C1       CTL2    -0.800000E-01   12.0110           0
     13226 MEMB     93       POPC     HA       HAL2     0.900000E-01   1.00800           0
     13227 MEMB     93       POPC     HB       HAL2     0.900000E-01   1.00800           0
     13228 MEMB     93       POPC     C2       CTL1     0.170000       12.0110           0
     13229 MEMB     93       POPC     HS       HAL1     0.900000E-01   1.00800           0
     13230 MEMB     93       POPC     O21      OSL     -0.490000       15.9994           0
     13231 MEMB     93       POPC     C21      CL       0.900000       12.0110           0
     13232 MEMB     93       POPC     O22      OBL     -0.630000       15.9994           0
     13233 MEMB     93       POPC     C22      CTL2    -0.220000       12.0110           0
     13234 MEMB     93       POPC     H2R      HAL2     0.900000E-01   1.00800           0
     13235 MEMB     93       POPC     H2S      HAL2     0.900000E-01   1.00800           0
     13236 MEMB     93       POPC     C3       CTL2     0.800000E-01   12.0110           0
     13237 MEMB     93       POPC     HX       HAL2     0.900000E-01   1.00800           0
     13238 MEMB     93       POPC     HY       HAL2     0.900000E-01   1.00800           0
     13239 MEMB     93       POPC     O31      OSL     -0.490000       15.9994           0
     13240 MEMB     93       POPC     C31      CL       0.900000       12.0110           0
     13241 MEMB     93       POPC     O32      OBL     -0.630000       15.9994           0
     13242 MEMB     93       POPC     C32      CTL2    -0.220000       12.0110           0
     13243 MEMB     93       POPC     H2X      HAL2     0.900000E-01   1.00800           0
     13244 MEMB     93       POPC     H2Y      HAL2     0.900000E-01   1.00800           0
     13245 MEMB     93       POPC     C23      CTL2    -0.180000       12.0110           0
     13246 MEMB     93       POPC     H3R      HAL2     0.900000E-01   1.00800           0
     13247 MEMB     93       POPC     H3S      HAL2     0.900000E-01   1.00800           0
     13248 MEMB     93       POPC     C24      CTL2    -0.180000       12.0110           0
     13249 MEMB     93       POPC     H4R      HAL2     0.900000E-01   1.00800           0
     13250 MEMB     93       POPC     H4S      HAL2     0.900000E-01   1.00800           0
     13251 MEMB     93       POPC     C25      CTL2    -0.180000       12.0110           0
     13252 MEMB     93       POPC     H5R      HAL2     0.900000E-01   1.00800           0
     13253 MEMB     93       POPC     H5S      HAL2     0.900000E-01   1.00800           0
     13254 MEMB     93       POPC     C26      CTL2    -0.180000       12.0110           0
     13255 MEMB     93       POPC     H6R      HAL2     0.900000E-01   1.00800           0
     13256 MEMB     93       POPC     H6S      HAL2     0.900000E-01   1.00800           0
     13257 MEMB     93       POPC     C27      CTL2    -0.180000       12.0110           0
     13258 MEMB     93       POPC     H7R      HAL2     0.900000E-01   1.00800           0
     13259 MEMB     93       POPC     H7S      HAL2     0.900000E-01   1.00800           0
     13260 MEMB     93       POPC     C28      CTL2    -0.180000       12.0110           0
     13261 MEMB     93       POPC     H8R      HAL2     0.900000E-01   1.00800           0
     13262 MEMB     93       POPC     H8S      HAL2     0.900000E-01   1.00800           0
     13263 MEMB     93       POPC     C29      CEL1    -0.150000       12.0110           0
     13264 MEMB     93       POPC     H91      HEL1     0.150000       1.00800           0
     13265 MEMB     93       POPC     C210     CEL1    -0.150000       12.0110           0
     13266 MEMB     93       POPC     H101     HEL1     0.150000       1.00800           0
     13267 MEMB     93       POPC     C211     CTL2    -0.180000       12.0110           0
     13268 MEMB     93       POPC     H11R     HAL2     0.900000E-01   1.00800           0
     13269 MEMB     93       POPC     H11S     HAL2     0.900000E-01   1.00800           0
     13270 MEMB     93       POPC     C212     CTL2    -0.180000       12.0110           0
     13271 MEMB     93       POPC     H12R     HAL2     0.900000E-01   1.00800           0
     13272 MEMB     93       POPC     H12S     HAL2     0.900000E-01   1.00800           0
     13273 MEMB     93       POPC     C213     CTL2    -0.180000       12.0110           0
     13274 MEMB     93       POPC     H13R     HAL2     0.900000E-01   1.00800           0
     13275 MEMB     93       POPC     H13S     HAL2     0.900000E-01   1.00800           0
     13276 MEMB     93       POPC     C214     CTL2    -0.180000       12.0110           0
     13277 MEMB     93       POPC     H14R     HAL2     0.900000E-01   1.00800           0
     13278 MEMB     93       POPC     H14S     HAL2     0.900000E-01   1.00800           0
     13279 MEMB     93       POPC     C215     CTL2    -0.180000       12.0110           0
     13280 MEMB     93       POPC     H15R     HAL2     0.900000E-01   1.00800           0
     13281 MEMB     93       POPC     H15S     HAL2     0.900000E-01   1.00800           0
     13282 MEMB     93       POPC     C216     CTL2    -0.180000       12.0110           0
     13283 MEMB     93       POPC     H16R     HAL2     0.900000E-01   1.00800           0
     13284 MEMB     93       POPC     H16S     HAL2     0.900000E-01   1.00800           0
     13285 MEMB     93       POPC     C217     CTL2    -0.180000       12.0110           0
     13286 MEMB     93       POPC     H17R     HAL2     0.900000E-01   1.00800           0
     13287 MEMB     93       POPC     H17S     HAL2     0.900000E-01   1.00800           0
     13288 MEMB     93       POPC     C218     CTL3    -0.270000       12.0110           0
     13289 MEMB     93       POPC     H18R     HAL3     0.900000E-01   1.00800           0
     13290 MEMB     93       POPC     H18S     HAL3     0.900000E-01   1.00800           0
     13291 MEMB     93       POPC     H18T     HAL3     0.900000E-01   1.00800           0
     13292 MEMB     93       POPC     C33      CTL2    -0.180000       12.0110           0
     13293 MEMB     93       POPC     H3X      HAL2     0.900000E-01   1.00800           0
     13294 MEMB     93       POPC     H3Y      HAL2     0.900000E-01   1.00800           0
     13295 MEMB     93       POPC     C34      CTL2    -0.180000       12.0110           0
     13296 MEMB     93       POPC     H4X      HAL2     0.900000E-01   1.00800           0
     13297 MEMB     93       POPC     H4Y      HAL2     0.900000E-01   1.00800           0
     13298 MEMB     93       POPC     C35      CTL2    -0.180000       12.0110           0
     13299 MEMB     93       POPC     H5X      HAL2     0.900000E-01   1.00800           0
     13300 MEMB     93       POPC     H5Y      HAL2     0.900000E-01   1.00800           0
     13301 MEMB     93       POPC     C36      CTL2    -0.180000       12.0110           0
     13302 MEMB     93       POPC     H6X      HAL2     0.900000E-01   1.00800           0
     13303 MEMB     93       POPC     H6Y      HAL2     0.900000E-01   1.00800           0
     13304 MEMB     93       POPC     C37      CTL2    -0.180000       12.0110           0
     13305 MEMB     93       POPC     H7X      HAL2     0.900000E-01   1.00800           0
     13306 MEMB     93       POPC     H7Y      HAL2     0.900000E-01   1.00800           0
     13307 MEMB     93       POPC     C38      CTL2    -0.180000       12.0110           0
     13308 MEMB     93       POPC     H8X      HAL2     0.900000E-01   1.00800           0
     13309 MEMB     93       POPC     H8Y      HAL2     0.900000E-01   1.00800           0
     13310 MEMB     93       POPC     C39      CTL2    -0.180000       12.0110           0
     13311 MEMB     93       POPC     H9X      HAL2     0.900000E-01   1.00800           0
     13312 MEMB     93       POPC     H9Y      HAL2     0.900000E-01   1.00800           0
     13313 MEMB     93       POPC     C310     CTL2    -0.180000       12.0110           0
     13314 MEMB     93       POPC     H10X     HAL2     0.900000E-01   1.00800           0
     13315 MEMB     93       POPC     H10Y     HAL2     0.900000E-01   1.00800           0
     13316 MEMB     93       POPC     C311     CTL2    -0.180000       12.0110           0
     13317 MEMB     93       POPC     H11X     HAL2     0.900000E-01   1.00800           0
     13318 MEMB     93       POPC     H11Y     HAL2     0.900000E-01   1.00800           0
     13319 MEMB     93       POPC     C312     CTL2    -0.180000       12.0110           0
     13320 MEMB     93       POPC     H12X     HAL2     0.900000E-01   1.00800           0
     13321 MEMB     93       POPC     H12Y     HAL2     0.900000E-01   1.00800           0
     13322 MEMB     93       POPC     C313     CTL2    -0.180000       12.0110           0
     13323 MEMB     93       POPC     H13X     HAL2     0.900000E-01   1.00800           0
     13324 MEMB     93       POPC     H13Y     HAL2     0.900000E-01   1.00800           0
     13325 MEMB     93       POPC     C314     CTL2    -0.180000       12.0110           0
     13326 MEMB     93       POPC     H14X     HAL2     0.900000E-01   1.00800           0
     13327 MEMB     93       POPC     H14Y     HAL2     0.900000E-01   1.00800           0
     13328 MEMB     93       POPC     C315     CTL2    -0.180000       12.0110           0
     13329 MEMB     93       POPC     H15X     HAL2     0.900000E-01   1.00800           0
     13330 MEMB     93       POPC     H15Y     HAL2     0.900000E-01   1.00800           0
     13331 MEMB     93       POPC     C316     CTL3    -0.270000       12.0110           0
     13332 MEMB     93       POPC     H16X     HAL3     0.900000E-01   1.00800           0
     13333 MEMB     93       POPC     H16Y     HAL3     0.900000E-01   1.00800           0
     13334 MEMB     93       POPC     H16Z     HAL3     0.900000E-01   1.00800           0
     13335 MEMB     94       POPC     N        NTL     -0.600000       14.0070           0
     13336 MEMB     94       POPC     C12      CTL2    -0.100000       12.0110           0
     13337 MEMB     94       POPC     H12A     HL       0.250000       1.00800           0
     13338 MEMB     94       POPC     H12B     HL       0.250000       1.00800           0
     13339 MEMB     94       POPC     C13      CTL5    -0.350000       12.0110           0
     13340 MEMB     94       POPC     H13A     HL       0.250000       1.00800           0
     13341 MEMB     94       POPC     H13B     HL       0.250000       1.00800           0
     13342 MEMB     94       POPC     H13C     HL       0.250000       1.00800           0
     13343 MEMB     94       POPC     C14      CTL5    -0.350000       12.0110           0
     13344 MEMB     94       POPC     H14A     HL       0.250000       1.00800           0
     13345 MEMB     94       POPC     H14B     HL       0.250000       1.00800           0
     13346 MEMB     94       POPC     H14C     HL       0.250000       1.00800           0
     13347 MEMB     94       POPC     C15      CTL5    -0.350000       12.0110           0
     13348 MEMB     94       POPC     H15A     HL       0.250000       1.00800           0
     13349 MEMB     94       POPC     H15B     HL       0.250000       1.00800           0
     13350 MEMB     94       POPC     H15C     HL       0.250000       1.00800           0
     13351 MEMB     94       POPC     C11      CTL2    -0.800000E-01   12.0110           0
     13352 MEMB     94       POPC     H11A     HAL2     0.900000E-01   1.00800           0
     13353 MEMB     94       POPC     H11B     HAL2     0.900000E-01   1.00800           0
     13354 MEMB     94       POPC     P        PL        1.50000       30.9740           0
     13355 MEMB     94       POPC     O13      O2L     -0.780000       15.9994           0
     13356 MEMB     94       POPC     O14      O2L     -0.780000       15.9994           0
     13357 MEMB     94       POPC     O12      OSLP    -0.570000       15.9994           0
     13358 MEMB     94       POPC     O11      OSLP    -0.570000       15.9994           0
     13359 MEMB     94       POPC     C1       CTL2    -0.800000E-01   12.0110           0
     13360 MEMB     94       POPC     HA       HAL2     0.900000E-01   1.00800           0
     13361 MEMB     94       POPC     HB       HAL2     0.900000E-01   1.00800           0
     13362 MEMB     94       POPC     C2       CTL1     0.170000       12.0110           0
     13363 MEMB     94       POPC     HS       HAL1     0.900000E-01   1.00800           0
     13364 MEMB     94       POPC     O21      OSL     -0.490000       15.9994           0
     13365 MEMB     94       POPC     C21      CL       0.900000       12.0110           0
     13366 MEMB     94       POPC     O22      OBL     -0.630000       15.9994           0
     13367 MEMB     94       POPC     C22      CTL2    -0.220000       12.0110           0
     13368 MEMB     94       POPC     H2R      HAL2     0.900000E-01   1.00800           0
     13369 MEMB     94       POPC     H2S      HAL2     0.900000E-01   1.00800           0
     13370 MEMB     94       POPC     C3       CTL2     0.800000E-01   12.0110           0
     13371 MEMB     94       POPC     HX       HAL2     0.900000E-01   1.00800           0
     13372 MEMB     94       POPC     HY       HAL2     0.900000E-01   1.00800           0
     13373 MEMB     94       POPC     O31      OSL     -0.490000       15.9994           0
     13374 MEMB     94       POPC     C31      CL       0.900000       12.0110           0
     13375 MEMB     94       POPC     O32      OBL     -0.630000       15.9994           0
     13376 MEMB     94       POPC     C32      CTL2    -0.220000       12.0110           0
     13377 MEMB     94       POPC     H2X      HAL2     0.900000E-01   1.00800           0
     13378 MEMB     94       POPC     H2Y      HAL2     0.900000E-01   1.00800           0
     13379 MEMB     94       POPC     C23      CTL2    -0.180000       12.0110           0
     13380 MEMB     94       POPC     H3R      HAL2     0.900000E-01   1.00800           0
     13381 MEMB     94       POPC     H3S      HAL2     0.900000E-01   1.00800           0
     13382 MEMB     94       POPC     C24      CTL2    -0.180000       12.0110           0
     13383 MEMB     94       POPC     H4R      HAL2     0.900000E-01   1.00800           0
     13384 MEMB     94       POPC     H4S      HAL2     0.900000E-01   1.00800           0
     13385 MEMB     94       POPC     C25      CTL2    -0.180000       12.0110           0
     13386 MEMB     94       POPC     H5R      HAL2     0.900000E-01   1.00800           0
     13387 MEMB     94       POPC     H5S      HAL2     0.900000E-01   1.00800           0
     13388 MEMB     94       POPC     C26      CTL2    -0.180000       12.0110           0
     13389 MEMB     94       POPC     H6R      HAL2     0.900000E-01   1.00800           0
     13390 MEMB     94       POPC     H6S      HAL2     0.900000E-01   1.00800           0
     13391 MEMB     94       POPC     C27      CTL2    -0.180000       12.0110           0
     13392 MEMB     94       POPC     H7R      HAL2     0.900000E-01   1.00800           0
     13393 MEMB     94       POPC     H7S      HAL2     0.900000E-01   1.00800           0
     13394 MEMB     94       POPC     C28      CTL2    -0.180000       12.0110           0
     13395 MEMB     94       POPC     H8R      HAL2     0.900000E-01   1.00800           0
     13396 MEMB     94       POPC     H8S      HAL2     0.900000E-01   1.00800           0
     13397 MEMB     94       POPC     C29      CEL1    -0.150000       12.0110           0
     13398 MEMB     94       POPC     H91      HEL1     0.150000       1.00800           0
     13399 MEMB     94       POPC     C210     CEL1    -0.150000       12.0110           0
     13400 MEMB     94       POPC     H101     HEL1     0.150000       1.00800           0
     13401 MEMB     94       POPC     C211     CTL2    -0.180000       12.0110           0
     13402 MEMB     94       POPC     H11R     HAL2     0.900000E-01   1.00800           0
     13403 MEMB     94       POPC     H11S     HAL2     0.900000E-01   1.00800           0
     13404 MEMB     94       POPC     C212     CTL2    -0.180000       12.0110           0
     13405 MEMB     94       POPC     H12R     HAL2     0.900000E-01   1.00800           0
     13406 MEMB     94       POPC     H12S     HAL2     0.900000E-01   1.00800           0
     13407 MEMB     94       POPC     C213     CTL2    -0.180000       12.0110           0
     13408 MEMB     94       POPC     H13R     HAL2     0.900000E-01   1.00800           0
     13409 MEMB     94       POPC     H13S     HAL2     0.900000E-01   1.00800           0
     13410 MEMB     94       POPC     C214     CTL2    -0.180000       12.0110           0
     13411 MEMB     94       POPC     H14R     HAL2     0.900000E-01   1.00800           0
     13412 MEMB     94       POPC     H14S     HAL2     0.900000E-01   1.00800           0
     13413 MEMB     94       POPC     C215     CTL2    -0.180000       12.0110           0
     13414 MEMB     94       POPC     H15R     HAL2     0.900000E-01   1.00800           0
     13415 MEMB     94       POPC     H15S     HAL2     0.900000E-01   1.00800           0
     13416 MEMB     94       POPC     C216     CTL2    -0.180000       12.0110           0
     13417 MEMB     94       POPC     H16R     HAL2     0.900000E-01   1.00800           0
     13418 MEMB     94       POPC     H16S     HAL2     0.900000E-01   1.00800           0
     13419 MEMB     94       POPC     C217     CTL2    -0.180000       12.0110           0
     13420 MEMB     94       POPC     H17R     HAL2     0.900000E-01   1.00800           0
     13421 MEMB     94       POPC     H17S     HAL2     0.900000E-01   1.00800           0
     13422 MEMB     94       POPC     C218     CTL3    -0.270000       12.0110           0
     13423 MEMB     94       POPC     H18R     HAL3     0.900000E-01   1.00800           0
     13424 MEMB     94       POPC     H18S     HAL3     0.900000E-01   1.00800           0
     13425 MEMB     94       POPC     H18T     HAL3     0.900000E-01   1.00800           0
     13426 MEMB     94       POPC     C33      CTL2    -0.180000       12.0110           0
     13427 MEMB     94       POPC     H3X      HAL2     0.900000E-01   1.00800           0
     13428 MEMB     94       POPC     H3Y      HAL2     0.900000E-01   1.00800           0
     13429 MEMB     94       POPC     C34      CTL2    -0.180000       12.0110           0
     13430 MEMB     94       POPC     H4X      HAL2     0.900000E-01   1.00800           0
     13431 MEMB     94       POPC     H4Y      HAL2     0.900000E-01   1.00800           0
     13432 MEMB     94       POPC     C35      CTL2    -0.180000       12.0110           0
     13433 MEMB     94       POPC     H5X      HAL2     0.900000E-01   1.00800           0
     13434 MEMB     94       POPC     H5Y      HAL2     0.900000E-01   1.00800           0
     13435 MEMB     94       POPC     C36      CTL2    -0.180000       12.0110           0
     13436 MEMB     94       POPC     H6X      HAL2     0.900000E-01   1.00800           0
     13437 MEMB     94       POPC     H6Y      HAL2     0.900000E-01   1.00800           0
     13438 MEMB     94       POPC     C37      CTL2    -0.180000       12.0110           0
     13439 MEMB     94       POPC     H7X      HAL2     0.900000E-01   1.00800           0
     13440 MEMB     94       POPC     H7Y      HAL2     0.900000E-01   1.00800           0
     13441 MEMB     94       POPC     C38      CTL2    -0.180000       12.0110           0
     13442 MEMB     94       POPC     H8X      HAL2     0.900000E-01   1.00800           0
     13443 MEMB     94       POPC     H8Y      HAL2     0.900000E-01   1.00800           0
     13444 MEMB     94       POPC     C39      CTL2    -0.180000       12.0110           0
     13445 MEMB     94       POPC     H9X      HAL2     0.900000E-01   1.00800           0
     13446 MEMB     94       POPC     H9Y      HAL2     0.900000E-01   1.00800           0
     13447 MEMB     94       POPC     C310     CTL2    -0.180000       12.0110           0
     13448 MEMB     94       POPC     H10X     HAL2     0.900000E-01   1.00800           0
     13449 MEMB     94       POPC     H10Y     HAL2     0.900000E-01   1.00800           0
     13450 MEMB     94       POPC     C311     CTL2    -0.180000       12.0110           0
     13451 MEMB     94       POPC     H11X     HAL2     0.900000E-01   1.00800           0
     13452 MEMB     94       POPC     H11Y     HAL2     0.900000E-01   1.00800           0
     13453 MEMB     94       POPC     C312     CTL2    -0.180000       12.0110           0
     13454 MEMB     94       POPC     H12X     HAL2     0.900000E-01   1.00800           0
     13455 MEMB     94       POPC     H12Y     HAL2     0.900000E-01   1.00800           0
     13456 MEMB     94       POPC     C313     CTL2    -0.180000       12.0110           0
     13457 MEMB     94       POPC     H13X     HAL2     0.900000E-01   1.00800           0
     13458 MEMB     94       POPC     H13Y     HAL2     0.900000E-01   1.00800           0
     13459 MEMB     94       POPC     C314     CTL2    -0.180000       12.0110           0
     13460 MEMB     94       POPC     H14X     HAL2     0.900000E-01   1.00800           0
     13461 MEMB     94       POPC     H14Y     HAL2     0.900000E-01   1.00800           0
     13462 MEMB     94       POPC     C315     CTL2    -0.180000       12.0110           0
     13463 MEMB     94       POPC     H15X     HAL2     0.900000E-01   1.00800           0
     13464 MEMB     94       POPC     H15Y     HAL2     0.900000E-01   1.00800           0
     13465 MEMB     94       POPC     C316     CTL3    -0.270000       12.0110           0
     13466 MEMB     94       POPC     H16X     HAL3     0.900000E-01   1.00800           0
     13467 MEMB     94       POPC     H16Y     HAL3     0.900000E-01   1.00800           0
     13468 MEMB     94       POPC     H16Z     HAL3     0.900000E-01   1.00800           0

     13378 !NBOND: bonds
         2         1         3         1         4         1         1         5
         8         5         8        10         5         6         5         7
         9         8        14        12        20        14        16        14
        23        20        10        11        10        12        27        12
        27        29        12        13        14        15        20        21
        20        22        16        17        16        18        16        19
        23        24        23        25        23        26        28        27
        29        30        29        31        34        31        34        36
        31        32        31        33        35        34        40        38
        36        37        36        38        44        38        44        46
        38        39        40        41        40        42        40        43
        45        44        50        48        52        50        56        50
        46        47        46        48        60        48        60        62
        48        49        50        51        52        53        52        54
        52        55        56        57        56        58        56        59
        61        60        66        64        69        66        71        69
        75        69        62        63        62        64        79        64
        79        81        64        65        66        67        66        68
        69        70        71        72        71        73        71        74
        75        76        75        77        75        78        80        79
        85        83        88        85        91        88        94        91
        97        94        81        82        81        83       101        83
       101       103        83        84        85        86        85        87
        88        89        88        90        91        92        91        93
        94        95        94        96       102       101        97        98
        97        99        97       100       107       105       109       107
       113       107       103       104       103       105       117       105
       117       119       105       106       107       108       109       110
       109       111       109       112       113       114       113       115
       113       116       118       117       123       121       126       123
       128       126       132       126       119       120       119       121
       136       121       136       138       121       122       123       124
       123       125       126       127       128       129       128       130
       128       131       132       133       132       134       132       135
       137       136       142       140       144       142       146       142
       138       139       138       140       150       140       150       152
       140       141       142       143       144       145       146       147
       146       148       146       149       151       150       156       154
       158       156       160       156       152       153       152       154
       164       154       164       166       154       155       156       157
       158       159       160       161       160       162       160       163
       165       164       166       167       166       168       171       168
       171       173       168       169       168       170       172       171
       177       175       180       177       182       180       186       180
       173       174       173       175       190       175       190       192
       175       176       177       178       177       179       180       181
       182       183       182       184       182       185       186       187
       186       188       186       189       191       190       204       196
       204       206       192       196       196       198       198       201
       201       193       192       193       197       196       202       201
       203       201       194       193       195       193       199       198
       200       198       205       204       210       208       206       207
       206       208       214       208       214       216       208       209
       210       211       210       212       210       213       215       214
       220       218       223       220       225       223       229       223
       216       217       216       218       233       218       233       235
       218       219       220       221       220       222       223       224
       225       226       225       227       225       228       229       230
       229       231       229       232       234       233       239       237
       245       239       241       239       248       245       235       236
       235       237       252       237       252       254       237       238
       239       240       245       246       245       247       241       242
       241       243       241       244       248       249       248       250
       248       251       253       252       258       256       261       258
       254       255       254       256       263       256       263       265
       256       257       258       259       258       260       261       262
       264       263       269       267       272       269       278       272
       275       273       283       277       265       266       265       267
       287       267       287       289       281       285       278       279
       275       277       267       268       269       270       269       271
       273       274       275       276       279       280       283       284
       281       282       285       286       288       287       273       272
       277       278       281       279       285       283       293       291
       299       293       295       293       302       299       289       290
       289       291       306       291       306       308       291       292
       293       294       299       300       299       301       295       296
       295       297       295       298       302       303       302       304
       302       305       307       306       312       310       315       312
       318       315       321       318       324       321       308       309
       308       310       328       310       328       330       310       311
       312       313       312       314       315       316       315       317
       318       319       318       320       321       322       321       323
       329       328       324       325       324       326       324       327
       334       332       337       334       340       337       343       340
       345       343       349       345       330       331       330       332
       352       332       352       354       332       333       334       335
       334       336       337       338       337       339       340       341
       340       342       343       344       346       347       346       348
       349       350       349       351       353       352       345       346
       358       356       361       358       364       361       367       364
       370       367       354       355       354       356       374       356
       374       376       356       357       358       359       358       360
       361       362       361       363       364       365       364       366
       367       368       367       369       375       374       370       371
       370       372       370       373       380       378       383       380
       386       383       389       386       391       389       395       391
       376       377       376       378       398       378       398       400
       378       379       380       381       380       382       383       384
       383       385       386       387       386       388       389       390
       392       393       392       394       395       396       395       397
       399       398       391       392       404       402       407       404
       410       407       412       410       400       401       400       402
       415       402       415       417       402       403       404       405
       404       406       407       408       407       409       412       413
       412       414       416       415       410       411       421       419
       424       421       427       424       429       427       417       418
       417       419       432       419       419       420       421       422
       421       423       424       425       424       426       429       430
       429       431       433       432       427       428       432       434
       434       435       434       436       438       437       439       437
       440       437       437       441       444       441       444       446
       441       442       441       443       445       444       450       448
       456       450       452       450       459       456       446       447
       446       448       463       448       463       465       448       449
       450       451       456       457       456       458       452       453
       452       454       452       455       459       460       459       461
       459       462       464       463       465       466       465       467
       470       467       470       472       467       468       467       469
       471       470       476       474       472       473       472       474
       480       474       480       482       474       475       476       477
       476       478       476       479       481       480       486       484
       488       486       492       486       482       483       482       484
       496       484       496       498       484       485       486       487
       488       489       488       490       488       491       492       493
       492       494       492       495       497       496       502       500
       505       502       507       505       511       505       498       499
       498       500       515       500       515       517       500       501
       502       503       502       504       505       506       507       508
       507       509       507       510       511       512       511       513
       511       514       516       515       521       519       524       521
       527       524       530       527       533       530       517       518
       517       519       537       519       537       539       519       520
       521       522       521       523       524       525       524       526
       527       528       527       529       530       531       530       532
       538       537       533       534       533       535       533       536
       543       541       545       543       549       543       539       540
       539       541       553       541       553       555       541       542
       543       544       545       546       545       547       545       548
       549       550       549       551       549       552       554       553
       559       557       562       559       564       562       568       562
       555       556       555       557       572       557       572       574
       557       558       559       560       559       561       562       563
       564       565       564       566       564       567       568       569
       568       570       568       571       573       572       578       576
       580       578       582       578       574       575       574       576
       586       576       586       588       576       577       578       579
       580       581       582       583       582       584       582       585
       587       586       592       590       594       592       596       592
       588       589       588       590       600       590       600       602
       590       591       592       593       594       595       596       597
       596       598       596       599       601       600       602       603
       602       604       607       604       607       609       604       605
       604       606       608       607       613       611       616       613
       618       616       622       616       609       610       609       611
       626       611       626       628       611       612       613       614
       613       615       616       617       618       619       618       620
       618       621       622       623       622       624       622       625
       627       626       640       632       640       642       628       632
       632       634       634       637       637       629       628       629
       633       632       638       637       639       637       630       629
       631       629       635       634       636       634       641       640
       646       644       642       643       642       644       650       644
       650       652       644       645       646       647       646       648
       646       649       651       650       656       654       659       656
       661       659       665       659       652       653       652       654
       669       654       669       671       654       655       656       657
       656       658       659       660       661       662       661       663
       661       664       665       666       665       667       665       668
       670       669       675       673       681       675       677       675
       684       681       671       672       671       673       688       673
       688       690       673       674       675       676       681       682
       681       683       677       678       677       679       677       680
       684       685       684       686       684       687       689       688
       694       692       697       694       690       691       690       692
       699       692       699       701       692       693       694       695
       694       696       697       698       700       699       705       703
       708       705       714       708       711       709       719       713
       701       702       701       703       723       703       723       725
       717       721       714       715       711       713       703       704
       705       706       705       707       709       710       711       712
       715       716       719       720       717       718       721       722
       724       723       709       708       713       714       717       715
       721       719       729       727       735       729       731       729
       738       735       725       726       725       727       742       727
       742       744       727       728       729       730       735       736
       735       737       731       732       731       733       731       734
       738       739       738       740       738       741       743       742
       748       746       751       748       754       751       757       754
       760       757       744       745       744       746       764       746
       764       766       746       747       748       749       748       750
       751       752       751       753       754       755       754       756
       757       758       757       759       765       764       760       761
       760       762       760       763       770       768       773       770
       776       773       779       776       781       779       785       781
       766       767       766       768       788       768       788       790
       768       769       770       771       770       772       773       774
       773       775       776       777       776       778       779       780
       782       783       782       784       785       786       785       787
       789       788       781       782       794       792       797       794
       800       797       803       800       806       803       790       791
       790       792       810       792       810       812       792       793
       794       795       794       796       797       798       797       799
       800       801       800       802       803       804       803       805
       811       810       806       807       806       808       806       809
       816       814       819       816       822       819       825       822
       827       825       831       827       812       813       812       814
       834       814       834       836       814       815       816       817
       816       818       819       820       819       821       822       823
       822       824       825       826       828       829       828       830
       831       832       831       833       835       834       827       828
       840       838       843       840       846       843       848       846
       836       837       836       838       851       838       851       853
       838       839       840       841       840       842       843       844
       843       845       848       849       848       850       852       851
       846       847       857       855       860       857       863       860
       865       863       853       854       853       855       868       855
       855       856       857       858       857       859       860       861
       860       862       865       866       865       867       869       868
       863       864       868       870       870       871       870       872
       873       877       873       881       873       885       877       878
       877       879       877       880       881       882       881       883
       881       884       885       886       885       887       885       888
       873       874       874       875       874       876       874       889
       889       890       889       891       889       895       896       897
       895       892       892       896       892       893       892       894
       897       898       897       899       897       900       900       901
       900       908       900       902       908       909       908       910
       908       911       902       903       903       905       903       904
       905       906       905       907       905       917       917       918
       917       919       917       920       920       921       920       922
       920       923       923       924       923       925       923       926
       926       927       926       928       926       929       929       930
       929       931       929       932       932       933       932       934
       932       935       935       936       935       937       937       938
       937       939       939       940       939       941       939       942
       942       943       942       944       942       945       945       946
       945       947       945       948       948       949       948       950
       948       951       951       952       951       953       951       954
       954       955       954       956       954       957       957       958
       957       959       957       960       960       961       960       962
       960       963       911       912       912       914       912       913
       914       915       914       916       914       964       964       965
       964       966       964       967       967       968       967       969
       967       970       970       971       970       972       970       973
       973       974       973       975       973       976       976       977
       976       978       976       979       979       980       979       981
       979       982       982       983       982       984       982       985
       985       986       985       987       985       988       988       989
       988       990       988       991       991       992       991       993
       991       994       994       995       994       996       994       997
       997       998       997       999       997      1000      1000      1001
      1000      1002      1000      1003      1003      1004      1003      1005
      1003      1006      1007      1011      1007      1015      1007      1019
      1011      1012      1011      1013      1011      1014      1015      1016
      1015      1017      1015      1018      1019      1020      1019      1021
      1019      1022      1007      1008      1008      1009      1008      1010
      1008      1023      1023      1024      1023      1025      1023      1029
      1030      1031      1029      1026      1026      1030      1026      1027
      1026      1028      1031      1032      1031      1033      1031      1034
      1034      1035      1034      1042      1034      1036      1042      1043
      1042      1044      1042      1045      1036      1037      1037      1039
      1037      1038      1039      1040      1039      1041      1039      1051
      1051      1052      1051      1053      1051      1054      1054      1055
      1054      1056      1054      1057      1057      1058      1057      1059
      1057      1060      1060      1061      1060      1062      1060      1063
      1063      1064      1063      1065      1063      1066      1066      1067
      1066      1068      1066      1069      1069      1070      1069      1071
      1071      1072      1071      1073      1073      1074      1073      1075
      1073      1076      1076      1077      1076      1078      1076      1079
      1079      1080      1079      1081      1079      1082      1082      1083
      1082      1084      1082      1085      1085      1086      1085      1087
      1085      1088      1088      1089      1088      1090      1088      1091
      1091      1092      1091      1093      1091      1094      1094      1095
      1094      1096      1094      1097      1045      1046      1046      1048
      1046      1047      1048      1049      1048      1050      1048      1098
      1098      1099      1098      1100      1098      1101      1101      1102
      1101      1103      1101      1104      1104      1105      1104      1106
      1104      1107      1107      1108      1107      1109      1107      1110
      1110      1111      1110      1112      1110      1113      1113      1114
      1113      1115      1113      1116      1116      1117      1116      1118
      1116      1119      1119      1120      1119      1121      1119      1122
      1122      1123      1122      1124      1122      1125      1125      1126
      1125      1127      1125      1128      1128      1129      1128      1130
      1128      1131      1131      1132      1131      1133      1131      1134
      1134      1135      1134      1136      1134      1137      1137      1138
      1137      1139      1137      1140      1141      1145      1141      1149
      1141      1153      1145      1146      1145      1147      1145      1148
      1149      1150      1149      1151      1149      1152      1153      1154
      1153      1155      1153      1156      1141      1142      1142      1143
      1142      1144      1142      1157      1157      1158      1157      1159
      1157      1163      1164      1165      1163      1160      1160      1164
      1160      1161      1160      1162      1165      1166      1165      1167
      1165      1168      1168      1169      1168      1176      1168      1170
      1176      1177      1176      1178      1176      1179      1170      1171
      1171      1173      1171      1172      1173      1174      1173      1175
      1173      1185      1185      1186      1185      1187      1185      1188
      1188      1189      1188      1190      1188      1191      1191      1192
      1191      1193      1191      1194      1194      1195      1194      1196
      1194      1197      1197      1198      1197      1199      1197      1200
      1200      1201      1200      1202      1200      1203      1203      1204
      1203      1205      1205      1206      1205      1207      1207      1208
      1207      1209      1207      1210      1210      1211      1210      1212
      1210      1213      1213      1214      1213      1215      1213      1216
      1216      1217      1216      1218      1216      1219      1219      1220
      1219      1221      1219      1222      1222      1223      1222      1224
      1222      1225      1225      1226      1225      1227      1225      1228
      1228      1229      1228      1230      1228      1231      1179      1180
      1180      1182      1180      1181      1182      1183      1182      1184
      1182      1232      1232      1233      1232      1234      1232      1235
      1235      1236      1235      1237      1235      1238      1238      1239
      1238      1240      1238      1241      1241      1242      1241      1243
      1241      1244      1244      1245      1244      1246      1244      1247
      1247      1248      1247      1249      1247      1250      1250      1251
      1250      1252      1250      1253      1253      1254      1253      1255
      1253      1256      1256      1257      1256      1258      1256      1259
      1259      1260      1259      1261      1259      1262      1262      1263
      1262      1264      1262      1265      1265      1266      1265      1267
      1265      1268      1268      1269      1268      1270      1268      1271
      1271      1272      1271      1273      1271      1274      1275      1279
      1275      1283      1275      1287      1279      1280      1279      1281
      1279      1282      1283      1284      1283      1285      1283      1286
      1287      1288      1287      1289      1287      1290      1275      1276
      1276      1277      1276      1278      1276      1291      1291      1292
      1291      1293      1291      1297      1298      1299      1297      1294
      1294      1298      1294      1295      1294      1296      1299      1300
      1299      1301      1299      1302      1302      1303      1302      1310
      1302      1304      1310      1311      1310      1312      1310      1313
      1304      1305      1305      1307      1305      1306      1307      1308
      1307      1309      1307      1319      1319      1320      1319      1321
      1319      1322      1322      1323      1322      1324      1322      1325
      1325      1326      1325      1327      1325      1328      1328      1329
      1328      1330      1328      1331      1331      1332      1331      1333
      1331      1334      1334      1335      1334      1336      1334      1337
      1337      1338      1337      1339      1339      1340      1339      1341
      1341      1342      1341      1343      1341      1344      1344      1345
      1344      1346      1344      1347      1347      1348      1347      1349
      1347      1350      1350      1351      1350      1352      1350      1353
      1353      1354      1353      1355      1353      1356      1356      1357
      1356      1358      1356      1359      1359      1360      1359      1361
      1359      1362      1362      1363      1362      1364      1362      1365
      1313      1314      1314      1316      1314      1315      1316      1317
      1316      1318      1316      1366      1366      1367      1366      1368
      1366      1369      1369      1370      1369      1371      1369      1372
      1372      1373      1372      1374      1372      1375      1375      1376
      1375      1377      1375      1378      1378      1379      1378      1380
      1378      1381      1381      1382      1381      1383      1381      1384
      1384      1385      1384      1386      1384      1387      1387      1388
      1387      1389      1387      1390      1390      1391      1390      1392
      1390      1393      1393      1394      1393      1395      1393      1396
      1396      1397      1396      1398      1396      1399      1399      1400
      1399      1401      1399      1402      1402      1403      1402      1404
      1402      1405      1405      1406      1405      1407      1405      1408
      1409      1413      1409      1417      1409      1421      1413      1414
      1413      1415      1413      1416      1417      1418      1417      1419
      1417      1420      1421      1422      1421      1423      1421      1424
      1409      1410      1410      1411      1410      1412      1410      1425
      1425      1426      1425      1427      1425      1431      1432      1433
      1431      1428      1428      1432      1428      1429      1428      1430
      1433      1434      1433      1435      1433      1436      1436      1437
      1436      1444      1436      1438      1444      1445      1444      1446
      1444      1447      1438      1439      1439      1441      1439      1440
      1441      1442      1441      1443      1441      1453      1453      1454
      1453      1455      1453      1456      1456      1457      1456      1458
      1456      1459      1459      1460      1459      1461      1459      1462
      1462      1463      1462      1464      1462      1465      1465      1466
      1465      1467      1465      1468      1468      1469      1468      1470
      1468      1471      1471      1472      1471      1473      1473      1474
      1473      1475      1475      1476      1475      1477      1475      1478
      1478      1479      1478      1480      1478      1481      1481      1482
      1481      1483      1481      1484      1484      1485      1484      1486
      1484      1487      1487      1488      1487      1489      1487      1490
      1490      1491      1490      1492      1490      1493      1493      1494
      1493      1495      1493      1496      1496      1497      1496      1498
      1496      1499      1447      1448      1448      1450      1448      1449
      1450      1451      1450      1452      1450      1500      1500      1501
      1500      1502      1500      1503      1503      1504      1503      1505
      1503      1506      1506      1507      1506      1508      1506      1509
      1509      1510      1509      1511      1509      1512      1512      1513
      1512      1514      1512      1515      1515      1516      1515      1517
      1515      1518      1518      1519      1518      1520      1518      1521
      1521      1522      1521      1523      1521      1524      1524      1525
      1524      1526      1524      1527      1527      1528      1527      1529
      1527      1530      1530      1531      1530      1532      1530      1533
      1533      1534      1533      1535      1533      1536      1536      1537
      1536      1538      1536      1539      1539      1540      1539      1541
      1539      1542      1543      1547      1543      1551      1543      1555
      1547      1548      1547      1549      1547      1550      1551      1552
      1551      1553      1551      1554      1555      1556      1555      1557
      1555      1558      1543      1544      1544      1545      1544      1546
      1544      1559      1559      1560      1559      1561      1559      1565
      1566      1567      1565      1562      1562      1566      1562      1563
      1562      1564      1567      1568      1567      1569      1567      1570
      1570      1571      1570      1578      1570      1572      1578      1579
      1578      1580      1578      1581      1572      1573      1573      1575
      1573      1574      1575      1576      1575      1577      1575      1587
      1587      1588      1587      1589      1587      1590      1590      1591
      1590      1592      1590      1593      1593      1594      1593      1595
      1593      1596      1596      1597      1596      1598      1596      1599
      1599      1600      1599      1601      1599      1602      1602      1603
      1602      1604      1602      1605      1605      1606      1605      1607
      1607      1608      1607      1609      1609      1610      1609      1611
      1609      1612      1612      1613      1612      1614      1612      1615
      1615      1616      1615      1617      1615      1618      1618      1619
      1618      1620      1618      1621      1621      1622      1621      1623
      1621      1624      1624      1625      1624      1626      1624      1627
      1627      1628      1627      1629      1627      1630      1630      1631
      1630      1632      1630      1633      1581      1582      1582      1584
      1582      1583      1584      1585      1584      1586      1584      1634
      1634      1635      1634      1636      1634      1637      1637      1638
      1637      1639      1637      1640      1640      1641      1640      1642
      1640      1643      1643      1644      1643      1645      1643      1646
      1646      1647      1646      1648      1646      1649      1649      1650
      1649      1651      1649      1652      1652      1653      1652      1654
      1652      1655      1655      1656      1655      1657      1655      1658
      1658      1659      1658      1660      1658      1661      1661      1662
      1661      1663      1661      1664      1664      1665      1664      1666
      1664      1667      1667      1668      1667      1669      1667      1670
      1670      1671      1670      1672      1670      1673      1673      1674
      1673      1675      1673      1676      1677      1681      1677      1685
      1677      1689      1681      1682      1681      1683      1681      1684
      1685      1686      1685      1687      1685      1688      1689      1690
      1689      1691      1689      1692      1677      1678      1678      1679
      1678      1680      1678      1693      1693      1694      1693      1695
      1693      1699      1700      1701      1699      1696      1696      1700
      1696      1697      1696      1698      1701      1702      1701      1703
      1701      1704      1704      1705      1704      1712      1704      1706
      1712      1713      1712      1714      1712      1715      1706      1707
      1707      1709      1707      1708      1709      1710      1709      1711
      1709      1721      1721      1722      1721      1723      1721      1724
      1724      1725      1724      1726      1724      1727      1727      1728
      1727      1729      1727      1730      1730      1731      1730      1732
      1730      1733      1733      1734      1733      1735      1733      1736
      1736      1737      1736      1738      1736      1739      1739      1740
      1739      1741      1741      1742      1741      1743      1743      1744
      1743      1745      1743      1746      1746      1747      1746      1748
      1746      1749      1749      1750      1749      1751      1749      1752
      1752      1753      1752      1754      1752      1755      1755      1756
      1755      1757      1755      1758      1758      1759      1758      1760
      1758      1761      1761      1762      1761      1763      1761      1764
      1764      1765      1764      1766      1764      1767      1715      1716
      1716      1718      1716      1717      1718      1719      1718      1720
      1718      1768      1768      1769      1768      1770      1768      1771
      1771      1772      1771      1773      1771      1774      1774      1775
      1774      1776      1774      1777      1777      1778      1777      1779
      1777      1780      1780      1781      1780      1782      1780      1783
      1783      1784      1783      1785      1783      1786      1786      1787
      1786      1788      1786      1789      1789      1790      1789      1791
      1789      1792      1792      1793      1792      1794      1792      1795
      1795      1796      1795      1797      1795      1798      1798      1799
      1798      1800      1798      1801      1801      1802      1801      1803
      1801      1804      1804      1805      1804      1806      1804      1807
      1807      1808      1807      1809      1807      1810      1811      1815
      1811      1819      1811      1823      1815      1816      1815      1817
      1815      1818      1819      1820      1819      1821      1819      1822
      1823      1824      1823      1825      1823      1826      1811      1812
      1812      1813      1812      1814      1812      1827      1827      1828
      1827      1829      1827      1833      1834      1835      1833      1830
      1830      1834      1830      1831      1830      1832      1835      1836
      1835      1837      1835      1838      1838      1839      1838      1846
      1838      1840      1846      1847      1846      1848      1846      1849
      1840      1841      1841      1843      1841      1842      1843      1844
      1843      1845      1843      1855      1855      1856      1855      1857
      1855      1858      1858      1859      1858      1860      1858      1861
      1861      1862      1861      1863      1861      1864      1864      1865
      1864      1866      1864      1867      1867      1868      1867      1869
      1867      1870      1870      1871      1870      1872      1870      1873
      1873      1874      1873      1875      1875      1876      1875      1877
      1877      1878      1877      1879      1877      1880      1880      1881
      1880      1882      1880      1883      1883      1884      1883      1885
      1883      1886      1886      1887      1886      1888      1886      1889
      1889      1890      1889      1891      1889      1892      1892      1893
      1892      1894      1892      1895      1895      1896      1895      1897
      1895      1898      1898      1899      1898      1900      1898      1901
      1849      1850      1850      1852      1850      1851      1852      1853
      1852      1854      1852      1902      1902      1903      1902      1904
      1902      1905      1905      1906      1905      1907      1905      1908
      1908      1909      1908      1910      1908      1911      1911      1912
      1911      1913      1911      1914      1914      1915      1914      1916
      1914      1917      1917      1918      1917      1919      1917      1920
      1920      1921      1920      1922      1920      1923      1923      1924
      1923      1925      1923      1926      1926      1927      1926      1928
      1926      1929      1929      1930      1929      1931      1929      1932
      1932      1933      1932      1934      1932      1935      1935      1936
      1935      1937      1935      1938      1938      1939      1938      1940
      1938      1941      1941      1942      1941      1943      1941      1944
      1945      1949      1945      1953      1945      1957      1949      1950
      1949      1951      1949      1952      1953      1954      1953      1955
      1953      1956      1957      1958      1957      1959      1957      1960
      1945      1946      1946      1947      1946      1948      1946      1961
      1961      1962      1961      1963      1961      1967      1968      1969
      1967      1964      1964      1968      1964      1965      1964      1966
      1969      1970      1969      1971      1969      1972      1972      1973
      1972      1980      1972      1974      1980      1981      1980      1982
      1980      1983      1974      1975      1975      1977      1975      1976
      1977      1978      1977      1979      1977      1989      1989      1990
      1989      1991      1989      1992      1992      1993      1992      1994
      1992      1995      1995      1996      1995      1997      1995      1998
      1998      1999      1998      2000      1998      2001      2001      2002
      2001      2003      2001      2004      2004      2005      2004      2006
      2004      2007      2007      2008      2007      2009      2009      2010
      2009      2011      2011      2012      2011      2013      2011      2014
      2014      2015      2014      2016      2014      2017      2017      2018
      2017      2019      2017      2020      2020      2021      2020      2022
      2020      2023      2023      2024      2023      2025      2023      2026
      2026      2027      2026      2028      2026      2029      2029      2030
      2029      2031      2029      2032      2032      2033      2032      2034
      2032      2035      1983      1984      1984      1986      1984      1985
      1986      1987      1986      1988      1986      2036      2036      2037
      2036      2038      2036      2039      2039      2040      2039      2041
      2039      2042      2042      2043      2042      2044      2042      2045
      2045      2046      2045      2047      2045      2048      2048      2049
      2048      2050      2048      2051      2051      2052      2051      2053
      2051      2054      2054      2055      2054      2056      2054      2057
      2057      2058      2057      2059      2057      2060      2060      2061
      2060      2062      2060      2063      2063      2064      2063      2065
      2063      2066      2066      2067      2066      2068      2066      2069
      2069      2070      2069      2071      2069      2072      2072      2073
      2072      2074      2072      2075      2075      2076      2075      2077
      2075      2078      2079      2083      2079      2087      2079      2091
      2083      2084      2083      2085      2083      2086      2087      2088
      2087      2089      2087      2090      2091      2092      2091      2093
      2091      2094      2079      2080      2080      2081      2080      2082
      2080      2095      2095      2096      2095      2097      2095      2101
      2102      2103      2101      2098      2098      2102      2098      2099
      2098      2100      2103      2104      2103      2105      2103      2106
      2106      2107      2106      2114      2106      2108      2114      2115
      2114      2116      2114      2117      2108      2109      2109      2111
      2109      2110      2111      2112      2111      2113      2111      2123
      2123      2124      2123      2125      2123      2126      2126      2127
      2126      2128      2126      2129      2129      2130      2129      2131
      2129      2132      2132      2133      2132      2134      2132      2135
      2135      2136      2135      2137      2135      2138      2138      2139
      2138      2140      2138      2141      2141      2142      2141      2143
      2143      2144      2143      2145      2145      2146      2145      2147
      2145      2148      2148      2149      2148      2150      2148      2151
      2151      2152      2151      2153      2151      2154      2154      2155
      2154      2156      2154      2157      2157      2158      2157      2159
      2157      2160      2160      2161      2160      2162      2160      2163
      2163      2164      2163      2165      2163      2166      2166      2167
      2166      2168      2166      2169      2117      2118      2118      2120
      2118      2119      2120      2121      2120      2122      2120      2170
      2170      2171      2170      2172      2170      2173      2173      2174
      2173      2175      2173      2176      2176      2177      2176      2178
      2176      2179      2179      2180      2179      2181      2179      2182
      2182      2183      2182      2184      2182      2185      2185      2186
      2185      2187      2185      2188      2188      2189      2188      2190
      2188      2191      2191      2192      2191      2193      2191      2194
      2194      2195      2194      2196      2194      2197      2197      2198
      2197      2199      2197      2200      2200      2201      2200      2202
      2200      2203      2203      2204      2203      2205      2203      2206
      2206      2207      2206      2208      2206      2209      2209      2210
      2209      2211      2209      2212      2213      2217      2213      2221
      2213      2225      2217      2218      2217      2219      2217      2220
      2221      2222      2221      2223      2221      2224      2225      2226
      2225      2227      2225      2228      2213      2214      2214      2215
      2214      2216      2214      2229      2229      2230      2229      2231
      2229      2235      2236      2237      2235      2232      2232      2236
      2232      2233      2232      2234      2237      2238      2237      2239
      2237      2240      2240      2241      2240      2248      2240      2242
      2248      2249      2248      2250      2248      2251      2242      2243
      2243      2245      2243      2244      2245      2246      2245      2247
      2245      2257      2257      2258      2257      2259      2257      2260
      2260      2261      2260      2262      2260      2263      2263      2264
      2263      2265      2263      2266      2266      2267      2266      2268
      2266      2269      2269      2270      2269      2271      2269      2272
      2272      2273      2272      2274      2272      2275      2275      2276
      2275      2277      2277      2278      2277      2279      2279      2280
      2279      2281      2279      2282      2282      2283      2282      2284
      2282      2285      2285      2286      2285      2287      2285      2288
      2288      2289      2288      2290      2288      2291      2291      2292
      2291      2293      2291      2294      2294      2295      2294      2296
      2294      2297      2297      2298      2297      2299      2297      2300
      2300      2301      2300      2302      2300      2303      2251      2252
      2252      2254      2252      2253      2254      2255      2254      2256
      2254      2304      2304      2305      2304      2306      2304      2307
      2307      2308      2307      2309      2307      2310      2310      2311
      2310      2312      2310      2313      2313      2314      2313      2315
      2313      2316      2316      2317      2316      2318      2316      2319
      2319      2320      2319      2321      2319      2322      2322      2323
      2322      2324      2322      2325      2325      2326      2325      2327
      2325      2328      2328      2329      2328      2330      2328      2331
      2331      2332      2331      2333      2331      2334      2334      2335
      2334      2336      2334      2337      2337      2338      2337      2339
      2337      2340      2340      2341      2340      2342      2340      2343
      2343      2344      2343      2345      2343      2346      2347      2351
      2347      2355      2347      2359      2351      2352      2351      2353
      2351      2354      2355      2356      2355      2357      2355      2358
      2359      2360      2359      2361      2359      2362      2347      2348
      2348      2349      2348      2350      2348      2363      2363      2364
      2363      2365      2363      2369      2370      2371      2369      2366
      2366      2370      2366      2367      2366      2368      2371      2372
      2371      2373      2371      2374      2374      2375      2374      2382
      2374      2376      2382      2383      2382      2384      2382      2385
      2376      2377      2377      2379      2377      2378      2379      2380
      2379      2381      2379      2391      2391      2392      2391      2393
      2391      2394      2394      2395      2394      2396      2394      2397
      2397      2398      2397      2399      2397      2400      2400      2401
      2400      2402      2400      2403      2403      2404      2403      2405
      2403      2406      2406      2407      2406      2408      2406      2409
      2409      2410      2409      2411      2411      2412      2411      2413
      2413      2414      2413      2415      2413      2416      2416      2417
      2416      2418      2416      2419      2419      2420      2419      2421
      2419      2422      2422      2423      2422      2424      2422      2425
      2425      2426      2425      2427      2425      2428      2428      2429
      2428      2430      2428      2431      2431      2432      2431      2433
      2431      2434      2434      2435      2434      2436      2434      2437
      2385      2386      2386      2388      2386      2387      2388      2389
      2388      2390      2388      2438      2438      2439      2438      2440
      2438      2441      2441      2442      2441      2443      2441      2444
      2444      2445      2444      2446      2444      2447      2447      2448
      2447      2449      2447      2450      2450      2451      2450      2452
      2450      2453      2453      2454      2453      2455      2453      2456
      2456      2457      2456      2458      2456      2459      2459      2460
      2459      2461      2459      2462      2462      2463      2462      2464
      2462      2465      2465      2466      2465      2467      2465      2468
      2468      2469      2468      2470      2468      2471      2471      2472
      2471      2473      2471      2474      2474      2475      2474      2476
      2474      2477      2477      2478      2477      2479      2477      2480
      2481      2485      2481      2489      2481      2493      2485      2486
      2485      2487      2485      2488      2489      2490      2489      2491
      2489      2492      2493      2494      2493      2495      2493      2496
      2481      2482      2482      2483      2482      2484      2482      2497
      2497      2498      2497      2499      2497      2503      2504      2505
      2503      2500      2500      2504      2500      2501      2500      2502
      2505      2506      2505      2507      2505      2508      2508      2509
      2508      2516      2508      2510      2516      2517      2516      2518
      2516      2519      2510      2511      2511      2513      2511      2512
      2513      2514      2513      2515      2513      2525      2525      2526
      2525      2527      2525      2528      2528      2529      2528      2530
      2528      2531      2531      2532      2531      2533      2531      2534
      2534      2535      2534      2536      2534      2537      2537      2538
      2537      2539      2537      2540      2540      2541      2540      2542
      2540      2543      2543      2544      2543      2545      2545      2546
      2545      2547      2547      2548      2547      2549      2547      2550
      2550      2551      2550      2552      2550      2553      2553      2554
      2553      2555      2553      2556      2556      2557      2556      2558
      2556      2559      2559      2560      2559      2561      2559      2562
      2562      2563      2562      2564      2562      2565      2565      2566
      2565      2567      2565      2568      2568      2569      2568      2570
      2568      2571      2519      2520      2520      2522      2520      2521
      2522      2523      2522      2524      2522      2572      2572      2573
      2572      2574      2572      2575      2575      2576      2575      2577
      2575      2578      2578      2579      2578      2580      2578      2581
      2581      2582      2581      2583      2581      2584      2584      2585
      2584      2586      2584      2587      2587      2588      2587      2589
      2587      2590      2590      2591      2590      2592      2590      2593
      2593      2594      2593      2595      2593      2596      2596      2597
      2596      2598      2596      2599      2599      2600      2599      2601
      2599      2602      2602      2603      2602      2604      2602      2605
      2605      2606      2605      2607      2605      2608      2608      2609
      2608      2610      2608      2611      2611      2612      2611      2613
      2611      2614      2615      2619      2615      2623      2615      2627
      2619      2620      2619      2621      2619      2622      2623      2624
      2623      2625      2623      2626      2627      2628      2627      2629
      2627      2630      2615      2616      2616      2617      2616      2618
      2616      2631      2631      2632      2631      2633      2631      2637
      2638      2639      2637      2634      2634      2638      2634      2635
      2634      2636      2639      2640      2639      2641      2639      2642
      2642      2643      2642      2650      2642      2644      2650      2651
      2650      2652      2650      2653      2644      2645      2645      2647
      2645      2646      2647      2648      2647      2649      2647      2659
      2659      2660      2659      2661      2659      2662      2662      2663
      2662      2664      2662      2665      2665      2666      2665      2667
      2665      2668      2668      2669      2668      2670      2668      2671
      2671      2672      2671      2673      2671      2674      2674      2675
      2674      2676      2674      2677      2677      2678      2677      2679
      2679      2680      2679      2681      2681      2682      2681      2683
      2681      2684      2684      2685      2684      2686      2684      2687
      2687      2688      2687      2689      2687      2690      2690      2691
      2690      2692      2690      2693      2693      2694      2693      2695
      2693      2696      2696      2697      2696      2698      2696      2699
      2699      2700      2699      2701      2699      2702      2702      2703
      2702      2704      2702      2705      2653      2654      2654      2656
      2654      2655      2656      2657      2656      2658      2656      2706
      2706      2707      2706      2708      2706      2709      2709      2710
      2709      2711      2709      2712      2712      2713      2712      2714
      2712      2715      2715      2716      2715      2717      2715      2718
      2718      2719      2718      2720      2718      2721      2721      2722
      2721      2723      2721      2724      2724      2725      2724      2726
      2724      2727      2727      2728      2727      2729      2727      2730
      2730      2731      2730      2732      2730      2733      2733      2734
      2733      2735      2733      2736      2736      2737      2736      2738
      2736      2739      2739      2740      2739      2741      2739      2742
      2742      2743      2742      2744      2742      2745      2745      2746
      2745      2747      2745      2748      2749      2753      2749      2757
      2749      2761      2753      2754      2753      2755      2753      2756
      2757      2758      2757      2759      2757      2760      2761      2762
      2761      2763      2761      2764      2749      2750      2750      2751
      2750      2752      2750      2765      2765      2766      2765      2767
      2765      2771      2772      2773      2771      2768      2768      2772
      2768      2769      2768      2770      2773      2774      2773      2775
      2773      2776      2776      2777      2776      2784      2776      2778
      2784      2785      2784      2786      2784      2787      2778      2779
      2779      2781      2779      2780      2781      2782      2781      2783
      2781      2793      2793      2794      2793      2795      2793      2796
      2796      2797      2796      2798      2796      2799      2799      2800
      2799      2801      2799      2802      2802      2803      2802      2804
      2802      2805      2805      2806      2805      2807      2805      2808
      2808      2809      2808      2810      2808      2811      2811      2812
      2811      2813      2813      2814      2813      2815      2815      2816
      2815      2817      2815      2818      2818      2819      2818      2820
      2818      2821      2821      2822      2821      2823      2821      2824
      2824      2825      2824      2826      2824      2827      2827      2828
      2827      2829      2827      2830      2830      2831      2830      2832
      2830      2833      2833      2834      2833      2835      2833      2836
      2836      2837      2836      2838      2836      2839      2787      2788
      2788      2790      2788      2789      2790      2791      2790      2792
      2790      2840      2840      2841      2840      2842      2840      2843
      2843      2844      2843      2845      2843      2846      2846      2847
      2846      2848      2846      2849      2849      2850      2849      2851
      2849      2852      2852      2853      2852      2854      2852      2855
      2855      2856      2855      2857      2855      2858      2858      2859
      2858      2860      2858      2861      2861      2862      2861      2863
      2861      2864      2864      2865      2864      2866      2864      2867
      2867      2868      2867      2869      2867      2870      2870      2871
      2870      2872      2870      2873      2873      2874      2873      2875
      2873      2876      2876      2877      2876      2878      2876      2879
      2879      2880      2879      2881      2879      2882      2883      2887
      2883      2891      2883      2895      2887      2888      2887      2889
      2887      2890      2891      2892      2891      2893      2891      2894
      2895      2896      2895      2897      2895      2898      2883      2884
      2884      2885      2884      2886      2884      2899      2899      2900
      2899      2901      2899      2905      2906      2907      2905      2902
      2902      2906      2902      2903      2902      2904      2907      2908
      2907      2909      2907      2910      2910      2911      2910      2918
      2910      2912      2918      2919      2918      2920      2918      2921
      2912      2913      2913      2915      2913      2914      2915      2916
      2915      2917      2915      2927      2927      2928      2927      2929
      2927      2930      2930      2931      2930      2932      2930      2933
      2933      2934      2933      2935      2933      2936      2936      2937
      2936      2938      2936      2939      2939      2940      2939      2941
      2939      2942      2942      2943      2942      2944      2942      2945
      2945      2946      2945      2947      2947      2948      2947      2949
      2949      2950      2949      2951      2949      2952      2952      2953
      2952      2954      2952      2955      2955      2956      2955      2957
      2955      2958      2958      2959      2958      2960      2958      2961
      2961      2962      2961      2963      2961      2964      2964      2965
      2964      2966      2964      2967      2967      2968      2967      2969
      2967      2970      2970      2971      2970      2972      2970      2973
      2921      2922      2922      2924      2922      2923      2924      2925
      2924      2926      2924      2974      2974      2975      2974      2976
      2974      2977      2977      2978      2977      2979      2977      2980
      2980      2981      2980      2982      2980      2983      2983      2984
      2983      2985      2983      2986      2986      2987      2986      2988
      2986      2989      2989      2990      2989      2991      2989      2992
      2992      2993      2992      2994      2992      2995      2995      2996
      2995      2997      2995      2998      2998      2999      2998      3000
      2998      3001      3001      3002      3001      3003      3001      3004
      3004      3005      3004      3006      3004      3007      3007      3008
      3007      3009      3007      3010      3010      3011      3010      3012
      3010      3013      3013      3014      3013      3015      3013      3016
      3017      3021      3017      3025      3017      3029      3021      3022
      3021      3023      3021      3024      3025      3026      3025      3027
      3025      3028      3029      3030      3029      3031      3029      3032
      3017      3018      3018      3019      3018      3020      3018      3033
      3033      3034      3033      3035      3033      3039      3040      3041
      3039      3036      3036      3040      3036      3037      3036      3038
      3041      3042      3041      3043      3041      3044      3044      3045
      3044      3052      3044      3046      3052      3053      3052      3054
      3052      3055      3046      3047      3047      3049      3047      3048
      3049      3050      3049      3051      3049      3061      3061      3062
      3061      3063      3061      3064      3064      3065      3064      3066
      3064      3067      3067      3068      3067      3069      3067      3070
      3070      3071      3070      3072      3070      3073      3073      3074
      3073      3075      3073      3076      3076      3077      3076      3078
      3076      3079      3079      3080      3079      3081      3081      3082
      3081      3083      3083      3084      3083      3085      3083      3086
      3086      3087      3086      3088      3086      3089      3089      3090
      3089      3091      3089      3092      3092      3093      3092      3094
      3092      3095      3095      3096      3095      3097      3095      3098
      3098      3099      3098      3100      3098      3101      3101      3102
      3101      3103      3101      3104      3104      3105      3104      3106
      3104      3107      3055      3056      3056      3058      3056      3057
      3058      3059      3058      3060      3058      3108      3108      3109
      3108      3110      3108      3111      3111      3112      3111      3113
      3111      3114      3114      3115      3114      3116      3114      3117
      3117      3118      3117      3119      3117      3120      3120      3121
      3120      3122      3120      3123      3123      3124      3123      3125
      3123      3126      3126      3127      3126      3128      3126      3129
      3129      3130      3129      3131      3129      3132      3132      3133
      3132      3134      3132      3135      3135      3136      3135      3137
      3135      3138      3138      3139      3138      3140      3138      3141
      3141      3142      3141      3143      3141      3144      3144      3145
      3144      3146      3144      3147      3147      3148      3147      3149
      3147      3150      3151      3155      3151      3159      3151      3163
      3155      3156      3155      3157      3155      3158      3159      3160
      3159      3161      3159      3162      3163      3164      3163      3165
      3163      3166      3151      3152      3152      3153      3152      3154
      3152      3167      3167      3168      3167      3169      3167      3173
      3174      3175      3173      3170      3170      3174      3170      3171
      3170      3172      3175      3176      3175      3177      3175      3178
      3178      3179      3178      3186      3178      3180      3186      3187
      3186      3188      3186      3189      3180      3181      3181      3183
      3181      3182      3183      3184      3183      3185      3183      3195
      3195      3196      3195      3197      3195      3198      3198      3199
      3198      3200      3198      3201      3201      3202      3201      3203
      3201      3204      3204      3205      3204      3206      3204      3207
      3207      3208      3207      3209      3207      3210      3210      3211
      3210      3212      3210      3213      3213      3214      3213      3215
      3215      3216      3215      3217      3217      3218      3217      3219
      3217      3220      3220      3221      3220      3222      3220      3223
      3223      3224      3223      3225      3223      3226      3226      3227
      3226      3228      3226      3229      3229      3230      3229      3231
      3229      3232      3232      3233      3232      3234      3232      3235
      3235      3236      3235      3237      3235      3238      3238      3239
      3238      3240      3238      3241      3189      3190      3190      3192
      3190      3191      3192      3193      3192      3194      3192      3242
      3242      3243      3242      3244      3242      3245      3245      3246
      3245      3247      3245      3248      3248      3249      3248      3250
      3248      3251      3251      3252      3251      3253      3251      3254
      3254      3255      3254      3256      3254      3257      3257      3258
      3257      3259      3257      3260      3260      3261      3260      3262
      3260      3263      3263      3264      3263      3265      3263      3266
      3266      3267      3266      3268      3266      3269      3269      3270
      3269      3271      3269      3272      3272      3273      3272      3274
      3272      3275      3275      3276      3275      3277      3275      3278
      3278      3279      3278      3280      3278      3281      3281      3282
      3281      3283      3281      3284      3285      3289      3285      3293
      3285      3297      3289      3290      3289      3291      3289      3292
      3293      3294      3293      3295      3293      3296      3297      3298
      3297      3299      3297      3300      3285      3286      3286      3287
      3286      3288      3286      3301      3301      3302      3301      3303
      3301      3307      3308      3309      3307      3304      3304      3308
      3304      3305      3304      3306      3309      3310      3309      3311
      3309      3312      3312      3313      3312      3320      3312      3314
      3320      3321      3320      3322      3320      3323      3314      3315
      3315      3317      3315      3316      3317      3318      3317      3319
      3317      3329      3329      3330      3329      3331      3329      3332
      3332      3333      3332      3334      3332      3335      3335      3336
      3335      3337      3335      3338      3338      3339      3338      3340
      3338      3341      3341      3342      3341      3343      3341      3344
      3344      3345      3344      3346      3344      3347      3347      3348
      3347      3349      3349      3350      3349      3351      3351      3352
      3351      3353      3351      3354      3354      3355      3354      3356
      3354      3357      3357      3358      3357      3359      3357      3360
      3360      3361      3360      3362      3360      3363      3363      3364
      3363      3365      3363      3366      3366      3367      3366      3368
      3366      3369      3369      3370      3369      3371      3369      3372
      3372      3373      3372      3374      3372      3375      3323      3324
      3324      3326      3324      3325      3326      3327      3326      3328
      3326      3376      3376      3377      3376      3378      3376      3379
      3379      3380      3379      3381      3379      3382      3382      3383
      3382      3384      3382      3385      3385      3386      3385      3387
      3385      3388      3388      3389      3388      3390      3388      3391
      3391      3392      3391      3393      3391      3394      3394      3395
      3394      3396      3394      3397      3397      3398      3397      3399
      3397      3400      3400      3401      3400      3402      3400      3403
      3403      3404      3403      3405      3403      3406      3406      3407
      3406      3408      3406      3409      3409      3410      3409      3411
      3409      3412      3412      3413      3412      3414      3412      3415
      3415      3416      3415      3417      3415      3418      3419      3423
      3419      3427      3419      3431      3423      3424      3423      3425
      3423      3426      3427      3428      3427      3429      3427      3430
      3431      3432      3431      3433      3431      3434      3419      3420
      3420      3421      3420      3422      3420      3435      3435      3436
      3435      3437      3435      3441      3442      3443      3441      3438
      3438      3442      3438      3439      3438      3440      3443      3444
      3443      3445      3443      3446      3446      3447      3446      3454
      3446      3448      3454      3455      3454      3456      3454      3457
      3448      3449      3449      3451      3449      3450      3451      3452
      3451      3453      3451      3463      3463      3464      3463      3465
      3463      3466      3466      3467      3466      3468      3466      3469
      3469      3470      3469      3471      3469      3472      3472      3473
      3472      3474      3472      3475      3475      3476      3475      3477
      3475      3478      3478      3479      3478      3480      3478      3481
      3481      3482      3481      3483      3483      3484      3483      3485
      3485      3486      3485      3487      3485      3488      3488      3489
      3488      3490      3488      3491      3491      3492      3491      3493
      3491      3494      3494      3495      3494      3496      3494      3497
      3497      3498      3497      3499      3497      3500      3500      3501
      3500      3502      3500      3503      3503      3504      3503      3505
      3503      3506      3506      3507      3506      3508      3506      3509
      3457      3458      3458      3460      3458      3459      3460      3461
      3460      3462      3460      3510      3510      3511      3510      3512
      3510      3513      3513      3514      3513      3515      3513      3516
      3516      3517      3516      3518      3516      3519      3519      3520
      3519      3521      3519      3522      3522      3523      3522      3524
      3522      3525      3525      3526      3525      3527      3525      3528
      3528      3529      3528      3530      3528      3531      3531      3532
      3531      3533      3531      3534      3534      3535      3534      3536
      3534      3537      3537      3538      3537      3539      3537      3540
      3540      3541      3540      3542      3540      3543      3543      3544
      3543      3545      3543      3546      3546      3547      3546      3548
      3546      3549      3549      3550      3549      3551      3549      3552
      3553      3557      3553      3561      3553      3565      3557      3558
      3557      3559      3557      3560      3561      3562      3561      3563
      3561      3564      3565      3566      3565      3567      3565      3568
      3553      3554      3554      3555      3554      3556      3554      3569
      3569      3570      3569      3571      3569      3575      3576      3577
      3575      3572      3572      3576      3572      3573      3572      3574
      3577      3578      3577      3579      3577      3580      3580      3581
      3580      3588      3580      3582      3588      3589      3588      3590
      3588      3591      3582      3583      3583      3585      3583      3584
      3585      3586      3585      3587      3585      3597      3597      3598
      3597      3599      3597      3600      3600      3601      3600      3602
      3600      3603      3603      3604      3603      3605      3603      3606
      3606      3607      3606      3608      3606      3609      3609      3610
      3609      3611      3609      3612      3612      3613      3612      3614
      3612      3615      3615      3616      3615      3617      3617      3618
      3617      3619      3619      3620      3619      3621      3619      3622
      3622      3623      3622      3624      3622      3625      3625      3626
      3625      3627      3625      3628      3628      3629      3628      3630
      3628      3631      3631      3632      3631      3633      3631      3634
      3634      3635      3634      3636      3634      3637      3637      3638
      3637      3639      3637      3640      3640      3641      3640      3642
      3640      3643      3591      3592      3592      3594      3592      3593
      3594      3595      3594      3596      3594      3644      3644      3645
      3644      3646      3644      3647      3647      3648      3647      3649
      3647      3650      3650      3651      3650      3652      3650      3653
      3653      3654      3653      3655      3653      3656      3656      3657
      3656      3658      3656      3659      3659      3660      3659      3661
      3659      3662      3662      3663      3662      3664      3662      3665
      3665      3666      3665      3667      3665      3668      3668      3669
      3668      3670      3668      3671      3671      3672      3671      3673
      3671      3674      3674      3675      3674      3676      3674      3677
      3677      3678      3677      3679      3677      3680      3680      3681
      3680      3682      3680      3683      3683      3684      3683      3685
      3683      3686      3687      3691      3687      3695      3687      3699
      3691      3692      3691      3693      3691      3694      3695      3696
      3695      3697      3695      3698      3699      3700      3699      3701
      3699      3702      3687      3688      3688      3689      3688      3690
      3688      3703      3703      3704      3703      3705      3703      3709
      3710      3711      3709      3706      3706      3710      3706      3707
      3706      3708      3711      3712      3711      3713      3711      3714
      3714      3715      3714      3722      3714      3716      3722      3723
      3722      3724      3722      3725      3716      3717      3717      3719
      3717      3718      3719      3720      3719      3721      3719      3731
      3731      3732      3731      3733      3731      3734      3734      3735
      3734      3736      3734      3737      3737      3738      3737      3739
      3737      3740      3740      3741      3740      3742      3740      3743
      3743      3744      3743      3745      3743      3746      3746      3747
      3746      3748      3746      3749      3749      3750      3749      3751
      3751      3752      3751      3753      3753      3754      3753      3755
      3753      3756      3756      3757      3756      3758      3756      3759
      3759      3760      3759      3761      3759      3762      3762      3763
      3762      3764      3762      3765      3765      3766      3765      3767
      3765      3768      3768      3769      3768      3770      3768      3771
      3771      3772      3771      3773      3771      3774      3774      3775
      3774      3776      3774      3777      3725      3726      3726      3728
      3726      3727      3728      3729      3728      3730      3728      3778
      3778      3779      3778      3780      3778      3781      3781      3782
      3781      3783      3781      3784      3784      3785      3784      3786
      3784      3787      3787      3788      3787      3789      3787      3790
      3790      3791      3790      3792      3790      3793      3793      3794
      3793      3795      3793      3796      3796      3797      3796      3798
      3796      3799      3799      3800      3799      3801      3799      3802
      3802      3803      3802      3804      3802      3805      3805      3806
      3805      3807      3805      3808      3808      3809      3808      3810
      3808      3811      3811      3812      3811      3813      3811      3814
      3814      3815      3814      3816      3814      3817      3817      3818
      3817      3819      3817      3820      3821      3825      3821      3829
      3821      3833      3825      3826      3825      3827      3825      3828
      3829      3830      3829      3831      3829      3832      3833      3834
      3833      3835      3833      3836      3821      3822      3822      3823
      3822      3824      3822      3837      3837      3838      3837      3839
      3837      3843      3844      3845      3843      3840      3840      3844
      3840      3841      3840      3842      3845      3846      3845      3847
      3845      3848      3848      3849      3848      3856      3848      3850
      3856      3857      3856      3858      3856      3859      3850      3851
      3851      3853      3851      3852      3853      3854      3853      3855
      3853      3865      3865      3866      3865      3867      3865      3868
      3868      3869      3868      3870      3868      3871      3871      3872
      3871      3873      3871      3874      3874      3875      3874      3876
      3874      3877      3877      3878      3877      3879      3877      3880
      3880      3881      3880      3882      3880      3883      3883      3884
      3883      3885      3885      3886      3885      3887      3887      3888
      3887      3889      3887      3890      3890      3891      3890      3892
      3890      3893      3893      3894      3893      3895      3893      3896
      3896      3897      3896      3898      3896      3899      3899      3900
      3899      3901      3899      3902      3902      3903      3902      3904
      3902      3905      3905      3906      3905      3907      3905      3908
      3908      3909      3908      3910      3908      3911      3859      3860
      3860      3862      3860      3861      3862      3863      3862      3864
      3862      3912      3912      3913      3912      3914      3912      3915
      3915      3916      3915      3917      3915      3918      3918      3919
      3918      3920      3918      3921      3921      3922      3921      3923
      3921      3924      3924      3925      3924      3926      3924      3927
      3927      3928      3927      3929      3927      3930      3930      3931
      3930      3932      3930      3933      3933      3934      3933      3935
      3933      3936      3936      3937      3936      3938      3936      3939
      3939      3940      3939      3941      3939      3942      3942      3943
      3942      3944      3942      3945      3945      3946      3945      3947
      3945      3948      3948      3949      3948      3950      3948      3951
      3951      3952      3951      3953      3951      3954      3955      3959
      3955      3963      3955      3967      3959      3960      3959      3961
      3959      3962      3963      3964      3963      3965      3963      3966
      3967      3968      3967      3969      3967      3970      3955      3956
      3956      3957      3956      3958      3956      3971      3971      3972
      3971      3973      3971      3977      3978      3979      3977      3974
      3974      3978      3974      3975      3974      3976      3979      3980
      3979      3981      3979      3982      3982      3983      3982      3990
      3982      3984      3990      3991      3990      3992      3990      3993
      3984      3985      3985      3987      3985      3986      3987      3988
      3987      3989      3987      3999      3999      4000      3999      4001
      3999      4002      4002      4003      4002      4004      4002      4005
      4005      4006      4005      4007      4005      4008      4008      4009
      4008      4010      4008      4011      4011      4012      4011      4013
      4011      4014      4014      4015      4014      4016      4014      4017
      4017      4018      4017      4019      4019      4020      4019      4021
      4021      4022      4021      4023      4021      4024      4024      4025
      4024      4026      4024      4027      4027      4028      4027      4029
      4027      4030      4030      4031      4030      4032      4030      4033
      4033      4034      4033      4035      4033      4036      4036      4037
      4036      4038      4036      4039      4039      4040      4039      4041
      4039      4042      4042      4043      4042      4044      4042      4045
      3993      3994      3994      3996      3994      3995      3996      3997
      3996      3998      3996      4046      4046      4047      4046      4048
      4046      4049      4049      4050      4049      4051      4049      4052
      4052      4053      4052      4054      4052      4055      4055      4056
      4055      4057      4055      4058      4058      4059      4058      4060
      4058      4061      4061      4062      4061      4063      4061      4064
      4064      4065      4064      4066      4064      4067      4067      4068
      4067      4069      4067      4070      4070      4071      4070      4072
      4070      4073      4073      4074      4073      4075      4073      4076
      4076      4077      4076      4078      4076      4079      4079      4080
      4079      4081      4079      4082      4082      4083      4082      4084
      4082      4085      4085      4086      4085      4087      4085      4088
      4089      4093      4089      4097      4089      4101      4093      4094
      4093      4095      4093      4096      4097      4098      4097      4099
      4097      4100      4101      4102      4101      4103      4101      4104
      4089      4090      4090      4091      4090      4092      4090      4105
      4105      4106      4105      4107      4105      4111      4112      4113
      4111      4108      4108      4112      4108      4109      4108      4110
      4113      4114      4113      4115      4113      4116      4116      4117
      4116      4124      4116      4118      4124      4125      4124      4126
      4124      4127      4118      4119      4119      4121      4119      4120
      4121      4122      4121      4123      4121      4133      4133      4134
      4133      4135      4133      4136      4136      4137      4136      4138
      4136      4139      4139      4140      4139      4141      4139      4142
      4142      4143      4142      4144      4142      4145      4145      4146
      4145      4147      4145      4148      4148      4149      4148      4150
      4148      4151      4151      4152      4151      4153      4153      4154
      4153      4155      4155      4156      4155      4157      4155      4158
      4158      4159      4158      4160      4158      4161      4161      4162
      4161      4163      4161      4164      4164      4165      4164      4166
      4164      4167      4167      4168      4167      4169      4167      4170
      4170      4171      4170      4172      4170      4173      4173      4174
      4173      4175      4173      4176      4176      4177      4176      4178
      4176      4179      4127      4128      4128      4130      4128      4129
      4130      4131      4130      4132      4130      4180      4180      4181
      4180      4182      4180      4183      4183      4184      4183      4185
      4183      4186      4186      4187      4186      4188      4186      4189
      4189      4190      4189      4191      4189      4192      4192      4193
      4192      4194      4192      4195      4195      4196      4195      4197
      4195      4198      4198      4199      4198      4200      4198      4201
      4201      4202      4201      4203      4201      4204      4204      4205
      4204      4206      4204      4207      4207      4208      4207      4209
      4207      4210      4210      4211      4210      4212      4210      4213
      4213      4214      4213      4215      4213      4216      4216      4217
      4216      4218      4216      4219      4219      4220      4219      4221
      4219      4222      4223      4227      4223      4231      4223      4235
      4227      4228      4227      4229      4227      4230      4231      4232
      4231      4233      4231      4234      4235      4236      4235      4237
      4235      4238      4223      4224      4224      4225      4224      4226
      4224      4239      4239      4240      4239      4241      4239      4245
      4246      4247      4245      4242      4242      4246      4242      4243
      4242      4244      4247      4248      4247      4249      4247      4250
      4250      4251      4250      4258      4250      4252      4258      4259
      4258      4260      4258      4261      4252      4253      4253      4255
      4253      4254      4255      4256      4255      4257      4255      4267
      4267      4268      4267      4269      4267      4270      4270      4271
      4270      4272      4270      4273      4273      4274      4273      4275
      4273      4276      4276      4277      4276      4278      4276      4279
      4279      4280      4279      4281      4279      4282      4282      4283
      4282      4284      4282      4285      4285      4286      4285      4287
      4287      4288      4287      4289      4289      4290      4289      4291
      4289      4292      4292      4293      4292      4294      4292      4295
      4295      4296      4295      4297      4295      4298      4298      4299
      4298      4300      4298      4301      4301      4302      4301      4303
      4301      4304      4304      4305      4304      4306      4304      4307
      4307      4308      4307      4309      4307      4310      4310      4311
      4310      4312      4310      4313      4261      4262      4262      4264
      4262      4263      4264      4265      4264      4266      4264      4314
      4314      4315      4314      4316      4314      4317      4317      4318
      4317      4319      4317      4320      4320      4321      4320      4322
      4320      4323      4323      4324      4323      4325      4323      4326
      4326      4327      4326      4328      4326      4329      4329      4330
      4329      4331      4329      4332      4332      4333      4332      4334
      4332      4335      4335      4336      4335      4337      4335      4338
      4338      4339      4338      4340      4338      4341      4341      4342
      4341      4343      4341      4344      4344      4345      4344      4346
      4344      4347      4347      4348      4347      4349      4347      4350
      4350      4351      4350      4352      4350      4353      4353      4354
      4353      4355      4353      4356      4357      4361      4357      4365
      4357      4369      4361      4362      4361      4363      4361      4364
      4365      4366      4365      4367      4365      4368      4369      4370
      4369      4371      4369      4372      4357      4358      4358      4359
      4358      4360      4358      4373      4373      4374      4373      4375
      4373      4379      4380      4381      4379      4376      4376      4380
      4376      4377      4376      4378      4381      4382      4381      4383
      4381      4384      4384      4385      4384      4392      4384      4386
      4392      4393      4392      4394      4392      4395      4386      4387
      4387      4389      4387      4388      4389      4390      4389      4391
      4389      4401      4401      4402      4401      4403      4401      4404
      4404      4405      4404      4406      4404      4407      4407      4408
      4407      4409      4407      4410      4410      4411      4410      4412
      4410      4413      4413      4414      4413      4415      4413      4416
      4416      4417      4416      4418      4416      4419      4419      4420
      4419      4421      4421      4422      4421      4423      4423      4424
      4423      4425      4423      4426      4426      4427      4426      4428
      4426      4429      4429      4430      4429      4431      4429      4432
      4432      4433      4432      4434      4432      4435      4435      4436
      4435      4437      4435      4438      4438      4439      4438      4440
      4438      4441      4441      4442      4441      4443      4441      4444
      4444      4445      4444      4446      4444      4447      4395      4396
      4396      4398      4396      4397      4398      4399      4398      4400
      4398      4448      4448      4449      4448      4450      4448      4451
      4451      4452      4451      4453      4451      4454      4454      4455
      4454      4456      4454      4457      4457      4458      4457      4459
      4457      4460      4460      4461      4460      4462      4460      4463
      4463      4464      4463      4465      4463      4466      4466      4467
      4466      4468      4466      4469      4469      4470      4469      4471
      4469      4472      4472      4473      4472      4474      4472      4475
      4475      4476      4475      4477      4475      4478      4478      4479
      4478      4480      4478      4481      4481      4482      4481      4483
      4481      4484      4484      4485      4484      4486      4484      4487
      4487      4488      4487      4489      4487      4490      4491      4495
      4491      4499      4491      4503      4495      4496      4495      4497
      4495      4498      4499      4500      4499      4501      4499      4502
      4503      4504      4503      4505      4503      4506      4491      4492
      4492      4493      4492      4494      4492      4507      4507      4508
      4507      4509      4507      4513      4514      4515      4513      4510
      4510      4514      4510      4511      4510      4512      4515      4516
      4515      4517      4515      4518      4518      4519      4518      4526
      4518      4520      4526      4527      4526      4528      4526      4529
      4520      4521      4521      4523      4521      4522      4523      4524
      4523      4525      4523      4535      4535      4536      4535      4537
      4535      4538      4538      4539      4538      4540      4538      4541
      4541      4542      4541      4543      4541      4544      4544      4545
      4544      4546      4544      4547      4547      4548      4547      4549
      4547      4550      4550      4551      4550      4552      4550      4553
      4553      4554      4553      4555      4555      4556      4555      4557
      4557      4558      4557      4559      4557      4560      4560      4561
      4560      4562      4560      4563      4563      4564      4563      4565
      4563      4566      4566      4567      4566      4568      4566      4569
      4569      4570      4569      4571      4569      4572      4572      4573
      4572      4574      4572      4575      4575      4576      4575      4577
      4575      4578      4578      4579      4578      4580      4578      4581
      4529      4530      4530      4532      4530      4531      4532      4533
      4532      4534      4532      4582      4582      4583      4582      4584
      4582      4585      4585      4586      4585      4587      4585      4588
      4588      4589      4588      4590      4588      4591      4591      4592
      4591      4593      4591      4594      4594      4595      4594      4596
      4594      4597      4597      4598      4597      4599      4597      4600
      4600      4601      4600      4602      4600      4603      4603      4604
      4603      4605      4603      4606      4606      4607      4606      4608
      4606      4609      4609      4610      4609      4611      4609      4612
      4612      4613      4612      4614      4612      4615      4615      4616
      4615      4617      4615      4618      4618      4619      4618      4620
      4618      4621      4621      4622      4621      4623      4621      4624
      4625      4629      4625      4633      4625      4637      4629      4630
      4629      4631      4629      4632      4633      4634      4633      4635
      4633      4636      4637      4638      4637      4639      4637      4640
      4625      4626      4626      4627      4626      4628      4626      4641
      4641      4642      4641      4643      4641      4647      4648      4649
      4647      4644      4644      4648      4644      4645      4644      4646
      4649      4650      4649      4651      4649      4652      4652      4653
      4652      4660      4652      4654      4660      4661      4660      4662
      4660      4663      4654      4655      4655      4657      4655      4656
      4657      4658      4657      4659      4657      4669      4669      4670
      4669      4671      4669      4672      4672      4673      4672      4674
      4672      4675      4675      4676      4675      4677      4675      4678
      4678      4679      4678      4680      4678      4681      4681      4682
      4681      4683      4681      4684      4684      4685      4684      4686
      4684      4687      4687      4688      4687      4689      4689      4690
      4689      4691      4691      4692      4691      4693      4691      4694
      4694      4695      4694      4696      4694      4697      4697      4698
      4697      4699      4697      4700      4700      4701      4700      4702
      4700      4703      4703      4704      4703      4705      4703      4706
      4706      4707      4706      4708      4706      4709      4709      4710
      4709      4711      4709      4712      4712      4713      4712      4714
      4712      4715      4663      4664      4664      4666      4664      4665
      4666      4667      4666      4668      4666      4716      4716      4717
      4716      4718      4716      4719      4719      4720      4719      4721
      4719      4722      4722      4723      4722      4724      4722      4725
      4725      4726      4725      4727      4725      4728      4728      4729
      4728      4730      4728      4731      4731      4732      4731      4733
      4731      4734      4734      4735      4734      4736      4734      4737
      4737      4738      4737      4739      4737      4740      4740      4741
      4740      4742      4740      4743      4743      4744      4743      4745
      4743      4746      4746      4747      4746      4748      4746      4749
      4749      4750      4749      4751      4749      4752      4752      4753
      4752      4754      4752      4755      4755      4756      4755      4757
      4755      4758      4759      4763      4759      4767      4759      4771
      4763      4764      4763      4765      4763      4766      4767      4768
      4767      4769      4767      4770      4771      4772      4771      4773
      4771      4774      4759      4760      4760      4761      4760      4762
      4760      4775      4775      4776      4775      4777      4775      4781
      4782      4783      4781      4778      4778      4782      4778      4779
      4778      4780      4783      4784      4783      4785      4783      4786
      4786      4787      4786      4794      4786      4788      4794      4795
      4794      4796      4794      4797      4788      4789      4789      4791
      4789      4790      4791      4792      4791      4793      4791      4803
      4803      4804      4803      4805      4803      4806      4806      4807
      4806      4808      4806      4809      4809      4810      4809      4811
      4809      4812      4812      4813      4812      4814      4812      4815
      4815      4816      4815      4817      4815      4818      4818      4819
      4818      4820      4818      4821      4821      4822      4821      4823
      4823      4824      4823      4825      4825      4826      4825      4827
      4825      4828      4828      4829      4828      4830      4828      4831
      4831      4832      4831      4833      4831      4834      4834      4835
      4834      4836      4834      4837      4837      4838      4837      4839
      4837      4840      4840      4841      4840      4842      4840      4843
      4843      4844      4843      4845      4843      4846      4846      4847
      4846      4848      4846      4849      4797      4798      4798      4800
      4798      4799      4800      4801      4800      4802      4800      4850
      4850      4851      4850      4852      4850      4853      4853      4854
      4853      4855      4853      4856      4856      4857      4856      4858
      4856      4859      4859      4860      4859      4861      4859      4862
      4862      4863      4862      4864      4862      4865      4865      4866
      4865      4867      4865      4868      4868      4869      4868      4870
      4868      4871      4871      4872      4871      4873      4871      4874
      4874      4875      4874      4876      4874      4877      4877      4878
      4877      4879      4877      4880      4880      4881      4880      4882
      4880      4883      4883      4884      4883      4885      4883      4886
      4886      4887      4886      4888      4886      4889      4889      4890
      4889      4891      4889      4892      4893      4897      4893      4901
      4893      4905      4897      4898      4897      4899      4897      4900
      4901      4902      4901      4903      4901      4904      4905      4906
      4905      4907      4905      4908      4893      4894      4894      4895
      4894      4896      4894      4909      4909      4910      4909      4911
      4909      4915      4916      4917      4915      4912      4912      4916
      4912      4913      4912      4914      4917      4918      4917      4919
      4917      4920      4920      4921      4920      4928      4920      4922
      4928      4929      4928      4930      4928      4931      4922      4923
      4923      4925      4923      4924      4925      4926      4925      4927
      4925      4937      4937      4938      4937      4939      4937      4940
      4940      4941      4940      4942      4940      4943      4943      4944
      4943      4945      4943      4946      4946      4947      4946      4948
      4946      4949      4949      4950      4949      4951      4949      4952
      4952      4953      4952      4954      4952      4955      4955      4956
      4955      4957      4957      4958      4957      4959      4959      4960
      4959      4961      4959      4962      4962      4963      4962      4964
      4962      4965      4965      4966      4965      4967      4965      4968
      4968      4969      4968      4970      4968      4971      4971      4972
      4971      4973      4971      4974      4974      4975      4974      4976
      4974      4977      4977      4978      4977      4979      4977      4980
      4980      4981      4980      4982      4980      4983      4931      4932
      4932      4934      4932      4933      4934      4935      4934      4936
      4934      4984      4984      4985      4984      4986      4984      4987
      4987      4988      4987      4989      4987      4990      4990      4991
      4990      4992      4990      4993      4993      4994      4993      4995
      4993      4996      4996      4997      4996      4998      4996      4999
      4999      5000      4999      5001      4999      5002      5002      5003
      5002      5004      5002      5005      5005      5006      5005      5007
      5005      5008      5008      5009      5008      5010      5008      5011
      5011      5012      5011      5013      5011      5014      5014      5015
      5014      5016      5014      5017      5017      5018      5017      5019
      5017      5020      5020      5021      5020      5022      5020      5023
      5023      5024      5023      5025      5023      5026      5027      5031
      5027      5035      5027      5039      5031      5032      5031      5033
      5031      5034      5035      5036      5035      5037      5035      5038
      5039      5040      5039      5041      5039      5042      5027      5028
      5028      5029      5028      5030      5028      5043      5043      5044
      5043      5045      5043      5049      5050      5051      5049      5046
      5046      5050      5046      5047      5046      5048      5051      5052
      5051      5053      5051      5054      5054      5055      5054      5062
      5054      5056      5062      5063      5062      5064      5062      5065
      5056      5057      5057      5059      5057      5058      5059      5060
      5059      5061      5059      5071      5071      5072      5071      5073
      5071      5074      5074      5075      5074      5076      5074      5077
      5077      5078      5077      5079      5077      5080      5080      5081
      5080      5082      5080      5083      5083      5084      5083      5085
      5083      5086      5086      5087      5086      5088      5086      5089
      5089      5090      5089      5091      5091      5092      5091      5093
      5093      5094      5093      5095      5093      5096      5096      5097
      5096      5098      5096      5099      5099      5100      5099      5101
      5099      5102      5102      5103      5102      5104      5102      5105
      5105      5106      5105      5107      5105      5108      5108      5109
      5108      5110      5108      5111      5111      5112      5111      5113
      5111      5114      5114      5115      5114      5116      5114      5117
      5065      5066      5066      5068      5066      5067      5068      5069
      5068      5070      5068      5118      5118      5119      5118      5120
      5118      5121      5121      5122      5121      5123      5121      5124
      5124      5125      5124      5126      5124      5127      5127      5128
      5127      5129      5127      5130      5130      5131      5130      5132
      5130      5133      5133      5134      5133      5135      5133      5136
      5136      5137      5136      5138      5136      5139      5139      5140
      5139      5141      5139      5142      5142      5143      5142      5144
      5142      5145      5145      5146      5145      5147      5145      5148
      5148      5149      5148      5150      5148      5151      5151      5152
      5151      5153      5151      5154      5154      5155      5154      5156
      5154      5157      5157      5158      5157      5159      5157      5160
      5161      5165      5161      5169      5161      5173      5165      5166
      5165      5167      5165      5168      5169      5170      5169      5171
      5169      5172      5173      5174      5173      5175      5173      5176
      5161      5162      5162      5163      5162      5164      5162      5177
      5177      5178      5177      5179      5177      5183      5184      5185
      5183      5180      5180      5184      5180      5181      5180      5182
      5185      5186      5185      5187      5185      5188      5188      5189
      5188      5196      5188      5190      5196      5197      5196      5198
      5196      5199      5190      5191      5191      5193      5191      5192
      5193      5194      5193      5195      5193      5205      5205      5206
      5205      5207      5205      5208      5208      5209      5208      5210
      5208      5211      5211      5212      5211      5213      5211      5214
      5214      5215      5214      5216      5214      5217      5217      5218
      5217      5219      5217      5220      5220      5221      5220      5222
      5220      5223      5223      5224      5223      5225      5225      5226
      5225      5227      5227      5228      5227      5229      5227      5230
      5230      5231      5230      5232      5230      5233      5233      5234
      5233      5235      5233      5236      5236      5237      5236      5238
      5236      5239      5239      5240      5239      5241      5239      5242
      5242      5243      5242      5244      5242      5245      5245      5246
      5245      5247      5245      5248      5248      5249      5248      5250
      5248      5251      5199      5200      5200      5202      5200      5201
      5202      5203      5202      5204      5202      5252      5252      5253
      5252      5254      5252      5255      5255      5256      5255      5257
      5255      5258      5258      5259      5258      5260      5258      5261
      5261      5262      5261      5263      5261      5264      5264      5265
      5264      5266      5264      5267      5267      5268      5267      5269
      5267      5270      5270      5271      5270      5272      5270      5273
      5273      5274      5273      5275      5273      5276      5276      5277
      5276      5278      5276      5279      5279      5280      5279      5281
      5279      5282      5282      5283      5282      5284      5282      5285
      5285      5286      5285      5287      5285      5288      5288      5289
      5288      5290      5288      5291      5291      5292      5291      5293
      5291      5294      5295      5299      5295      5303      5295      5307
      5299      5300      5299      5301      5299      5302      5303      5304
      5303      5305      5303      5306      5307      5308      5307      5309
      5307      5310      5295      5296      5296      5297      5296      5298
      5296      5311      5311      5312      5311      5313      5311      5317
      5318      5319      5317      5314      5314      5318      5314      5315
      5314      5316      5319      5320      5319      5321      5319      5322
      5322      5323      5322      5330      5322      5324      5330      5331
      5330      5332      5330      5333      5324      5325      5325      5327
      5325      5326      5327      5328      5327      5329      5327      5339
      5339      5340      5339      5341      5339      5342      5342      5343
      5342      5344      5342      5345      5345      5346      5345      5347
      5345      5348      5348      5349      5348      5350      5348      5351
      5351      5352      5351      5353      5351      5354      5354      5355
      5354      5356      5354      5357      5357      5358      5357      5359
      5359      5360      5359      5361      5361      5362      5361      5363
      5361      5364      5364      5365      5364      5366      5364      5367
      5367      5368      5367      5369      5367      5370      5370      5371
      5370      5372      5370      5373      5373      5374      5373      5375
      5373      5376      5376      5377      5376      5378      5376      5379
      5379      5380      5379      5381      5379      5382      5382      5383
      5382      5384      5382      5385      5333      5334      5334      5336
      5334      5335      5336      5337      5336      5338      5336      5386
      5386      5387      5386      5388      5386      5389      5389      5390
      5389      5391      5389      5392      5392      5393      5392      5394
      5392      5395      5395      5396      5395      5397      5395      5398
      5398      5399      5398      5400      5398      5401      5401      5402
      5401      5403      5401      5404      5404      5405      5404      5406
      5404      5407      5407      5408      5407      5409      5407      5410
      5410      5411      5410      5412      5410      5413      5413      5414
      5413      5415      5413      5416      5416      5417      5416      5418
      5416      5419      5419      5420      5419      5421      5419      5422
      5422      5423      5422      5424      5422      5425      5425      5426
      5425      5427      5425      5428      5429      5433      5429      5437
      5429      5441      5433      5434      5433      5435      5433      5436
      5437      5438      5437      5439      5437      5440      5441      5442
      5441      5443      5441      5444      5429      5430      5430      5431
      5430      5432      5430      5445      5445      5446      5445      5447
      5445      5451      5452      5453      5451      5448      5448      5452
      5448      5449      5448      5450      5453      5454      5453      5455
      5453      5456      5456      5457      5456      5464      5456      5458
      5464      5465      5464      5466      5464      5467      5458      5459
      5459      5461      5459      5460      5461      5462      5461      5463
      5461      5473      5473      5474      5473      5475      5473      5476
      5476      5477      5476      5478      5476      5479      5479      5480
      5479      5481      5479      5482      5482      5483      5482      5484
      5482      5485      5485      5486      5485      5487      5485      5488
      5488      5489      5488      5490      5488      5491      5491      5492
      5491      5493      5493      5494      5493      5495      5495      5496
      5495      5497      5495      5498      5498      5499      5498      5500
      5498      5501      5501      5502      5501      5503      5501      5504
      5504      5505      5504      5506      5504      5507      5507      5508
      5507      5509      5507      5510      5510      5511      5510      5512
      5510      5513      5513      5514      5513      5515      5513      5516
      5516      5517      5516      5518      5516      5519      5467      5468
      5468      5470      5468      5469      5470      5471      5470      5472
      5470      5520      5520      5521      5520      5522      5520      5523
      5523      5524      5523      5525      5523      5526      5526      5527
      5526      5528      5526      5529      5529      5530      5529      5531
      5529      5532      5532      5533      5532      5534      5532      5535
      5535      5536      5535      5537      5535      5538      5538      5539
      5538      5540      5538      5541      5541      5542      5541      5543
      5541      5544      5544      5545      5544      5546      5544      5547
      5547      5548      5547      5549      5547      5550      5550      5551
      5550      5552      5550      5553      5553      5554      5553      5555
      5553      5556      5556      5557      5556      5558      5556      5559
      5559      5560      5559      5561      5559      5562      5563      5567
      5563      5571      5563      5575      5567      5568      5567      5569
      5567      5570      5571      5572      5571      5573      5571      5574
      5575      5576      5575      5577      5575      5578      5563      5564
      5564      5565      5564      5566      5564      5579      5579      5580
      5579      5581      5579      5585      5586      5587      5585      5582
      5582      5586      5582      5583      5582      5584      5587      5588
      5587      5589      5587      5590      5590      5591      5590      5598
      5590      5592      5598      5599      5598      5600      5598      5601
      5592      5593      5593      5595      5593      5594      5595      5596
      5595      5597      5595      5607      5607      5608      5607      5609
      5607      5610      5610      5611      5610      5612      5610      5613
      5613      5614      5613      5615      5613      5616      5616      5617
      5616      5618      5616      5619      5619      5620      5619      5621
      5619      5622      5622      5623      5622      5624      5622      5625
      5625      5626      5625      5627      5627      5628      5627      5629
      5629      5630      5629      5631      5629      5632      5632      5633
      5632      5634      5632      5635      5635      5636      5635      5637
      5635      5638      5638      5639      5638      5640      5638      5641
      5641      5642      5641      5643      5641      5644      5644      5645
      5644      5646      5644      5647      5647      5648      5647      5649
      5647      5650      5650      5651      5650      5652      5650      5653
      5601      5602      5602      5604      5602      5603      5604      5605
      5604      5606      5604      5654      5654      5655      5654      5656
      5654      5657      5657      5658      5657      5659      5657      5660
      5660      5661      5660      5662      5660      5663      5663      5664
      5663      5665      5663      5666      5666      5667      5666      5668
      5666      5669      5669      5670      5669      5671      5669      5672
      5672      5673      5672      5674      5672      5675      5675      5676
      5675      5677      5675      5678      5678      5679      5678      5680
      5678      5681      5681      5682      5681      5683      5681      5684
      5684      5685      5684      5686      5684      5687      5687      5688
      5687      5689      5687      5690      5690      5691      5690      5692
      5690      5693      5693      5694      5693      5695      5693      5696
      5697      5701      5697      5705      5697      5709      5701      5702
      5701      5703      5701      5704      5705      5706      5705      5707
      5705      5708      5709      5710      5709      5711      5709      5712
      5697      5698      5698      5699      5698      5700      5698      5713
      5713      5714      5713      5715      5713      5719      5720      5721
      5719      5716      5716      5720      5716      5717      5716      5718
      5721      5722      5721      5723      5721      5724      5724      5725
      5724      5732      5724      5726      5732      5733      5732      5734
      5732      5735      5726      5727      5727      5729      5727      5728
      5729      5730      5729      5731      5729      5741      5741      5742
      5741      5743      5741      5744      5744      5745      5744      5746
      5744      5747      5747      5748      5747      5749      5747      5750
      5750      5751      5750      5752      5750      5753      5753      5754
      5753      5755      5753      5756      5756      5757      5756      5758
      5756      5759      5759      5760      5759      5761      5761      5762
      5761      5763      5763      5764      5763      5765      5763      5766
      5766      5767      5766      5768      5766      5769      5769      5770
      5769      5771      5769      5772      5772      5773      5772      5774
      5772      5775      5775      5776      5775      5777      5775      5778
      5778      5779      5778      5780      5778      5781      5781      5782
      5781      5783      5781      5784      5784      5785      5784      5786
      5784      5787      5735      5736      5736      5738      5736      5737
      5738      5739      5738      5740      5738      5788      5788      5789
      5788      5790      5788      5791      5791      5792      5791      5793
      5791      5794      5794      5795      5794      5796      5794      5797
      5797      5798      5797      5799      5797      5800      5800      5801
      5800      5802      5800      5803      5803      5804      5803      5805
      5803      5806      5806      5807      5806      5808      5806      5809
      5809      5810      5809      5811      5809      5812      5812      5813
      5812      5814      5812      5815      5815      5816      5815      5817
      5815      5818      5818      5819      5818      5820      5818      5821
      5821      5822      5821      5823      5821      5824      5824      5825
      5824      5826      5824      5827      5827      5828      5827      5829
      5827      5830      5831      5835      5831      5839      5831      5843
      5835      5836      5835      5837      5835      5838      5839      5840
      5839      5841      5839      5842      5843      5844      5843      5845
      5843      5846      5831      5832      5832      5833      5832      5834
      5832      5847      5847      5848      5847      5849      5847      5853
      5854      5855      5853      5850      5850      5854      5850      5851
      5850      5852      5855      5856      5855      5857      5855      5858
      5858      5859      5858      5866      5858      5860      5866      5867
      5866      5868      5866      5869      5860      5861      5861      5863
      5861      5862      5863      5864      5863      5865      5863      5875
      5875      5876      5875      5877      5875      5878      5878      5879
      5878      5880      5878      5881      5881      5882      5881      5883
      5881      5884      5884      5885      5884      5886      5884      5887
      5887      5888      5887      5889      5887      5890      5890      5891
      5890      5892      5890      5893      5893      5894      5893      5895
      5895      5896      5895      5897      5897      5898      5897      5899
      5897      5900      5900      5901      5900      5902      5900      5903
      5903      5904      5903      5905      5903      5906      5906      5907
      5906      5908      5906      5909      5909      5910      5909      5911
      5909      5912      5912      5913      5912      5914      5912      5915
      5915      5916      5915      5917      5915      5918      5918      5919
      5918      5920      5918      5921      5869      5870      5870      5872
      5870      5871      5872      5873      5872      5874      5872      5922
      5922      5923      5922      5924      5922      5925      5925      5926
      5925      5927      5925      5928      5928      5929      5928      5930
      5928      5931      5931      5932      5931      5933      5931      5934
      5934      5935      5934      5936      5934      5937      5937      5938
      5937      5939      5937      5940      5940      5941      5940      5942
      5940      5943      5943      5944      5943      5945      5943      5946
      5946      5947      5946      5948      5946      5949      5949      5950
      5949      5951      5949      5952      5952      5953      5952      5954
      5952      5955      5955      5956      5955      5957      5955      5958
      5958      5959      5958      5960      5958      5961      5961      5962
      5961      5963      5961      5964      5965      5969      5965      5973
      5965      5977      5969      5970      5969      5971      5969      5972
      5973      5974      5973      5975      5973      5976      5977      5978
      5977      5979      5977      5980      5965      5966      5966      5967
      5966      5968      5966      5981      5981      5982      5981      5983
      5981      5987      5988      5989      5987      5984      5984      5988
      5984      5985      5984      5986      5989      5990      5989      5991
      5989      5992      5992      5993      5992      6000      5992      5994
      6000      6001      6000      6002      6000      6003      5994      5995
      5995      5997      5995      5996      5997      5998      5997      5999
      5997      6009      6009      6010      6009      6011      6009      6012
      6012      6013      6012      6014      6012      6015      6015      6016
      6015      6017      6015      6018      6018      6019      6018      6020
      6018      6021      6021      6022      6021      6023      6021      6024
      6024      6025      6024      6026      6024      6027      6027      6028
      6027      6029      6029      6030      6029      6031      6031      6032
      6031      6033      6031      6034      6034      6035      6034      6036
      6034      6037      6037      6038      6037      6039      6037      6040
      6040      6041      6040      6042      6040      6043      6043      6044
      6043      6045      6043      6046      6046      6047      6046      6048
      6046      6049      6049      6050      6049      6051      6049      6052
      6052      6053      6052      6054      6052      6055      6003      6004
      6004      6006      6004      6005      6006      6007      6006      6008
      6006      6056      6056      6057      6056      6058      6056      6059
      6059      6060      6059      6061      6059      6062      6062      6063
      6062      6064      6062      6065      6065      6066      6065      6067
      6065      6068      6068      6069      6068      6070      6068      6071
      6071      6072      6071      6073      6071      6074      6074      6075
      6074      6076      6074      6077      6077      6078      6077      6079
      6077      6080      6080      6081      6080      6082      6080      6083
      6083      6084      6083      6085      6083      6086      6086      6087
      6086      6088      6086      6089      6089      6090      6089      6091
      6089      6092      6092      6093      6092      6094      6092      6095
      6095      6096      6095      6097      6095      6098      6099      6103
      6099      6107      6099      6111      6103      6104      6103      6105
      6103      6106      6107      6108      6107      6109      6107      6110
      6111      6112      6111      6113      6111      6114      6099      6100
      6100      6101      6100      6102      6100      6115      6115      6116
      6115      6117      6115      6121      6122      6123      6121      6118
      6118      6122      6118      6119      6118      6120      6123      6124
      6123      6125      6123      6126      6126      6127      6126      6134
      6126      6128      6134      6135      6134      6136      6134      6137
      6128      6129      6129      6131      6129      6130      6131      6132
      6131      6133      6131      6143      6143      6144      6143      6145
      6143      6146      6146      6147      6146      6148      6146      6149
      6149      6150      6149      6151      6149      6152      6152      6153
      6152      6154      6152      6155      6155      6156      6155      6157
      6155      6158      6158      6159      6158      6160      6158      6161
      6161      6162      6161      6163      6163      6164      6163      6165
      6165      6166      6165      6167      6165      6168      6168      6169
      6168      6170      6168      6171      6171      6172      6171      6173
      6171      6174      6174      6175      6174      6176      6174      6177
      6177      6178      6177      6179      6177      6180      6180      6181
      6180      6182      6180      6183      6183      6184      6183      6185
      6183      6186      6186      6187      6186      6188      6186      6189
      6137      6138      6138      6140      6138      6139      6140      6141
      6140      6142      6140      6190      6190      6191      6190      6192
      6190      6193      6193      6194      6193      6195      6193      6196
      6196      6197      6196      6198      6196      6199      6199      6200
      6199      6201      6199      6202      6202      6203      6202      6204
      6202      6205      6205      6206      6205      6207      6205      6208
      6208      6209      6208      6210      6208      6211      6211      6212
      6211      6213      6211      6214      6214      6215      6214      6216
      6214      6217      6217      6218      6217      6219      6217      6220
      6220      6221      6220      6222      6220      6223      6223      6224
      6223      6225      6223      6226      6226      6227      6226      6228
      6226      6229      6229      6230      6229      6231      6229      6232
      6233      6237      6233      6241      6233      6245      6237      6238
      6237      6239      6237      6240      6241      6242      6241      6243
      6241      6244      6245      6246      6245      6247      6245      6248
      6233      6234      6234      6235      6234      6236      6234      6249
      6249      6250      6249      6251      6249      6255      6256      6257
      6255      6252      6252      6256      6252      6253      6252      6254
      6257      6258      6257      6259      6257      6260      6260      6261
      6260      6268      6260      6262      6268      6269      6268      6270
      6268      6271      6262      6263      6263      6265      6263      6264
      6265      6266      6265      6267      6265      6277      6277      6278
      6277      6279      6277      6280      6280      6281      6280      6282
      6280      6283      6283      6284      6283      6285      6283      6286
      6286      6287      6286      6288      6286      6289      6289      6290
      6289      6291      6289      6292      6292      6293      6292      6294
      6292      6295      6295      6296      6295      6297      6297      6298
      6297      6299      6299      6300      6299      6301      6299      6302
      6302      6303      6302      6304      6302      6305      6305      6306
      6305      6307      6305      6308      6308      6309      6308      6310
      6308      6311      6311      6312      6311      6313      6311      6314
      6314      6315      6314      6316      6314      6317      6317      6318
      6317      6319      6317      6320      6320      6321      6320      6322
      6320      6323      6271      6272      6272      6274      6272      6273
      6274      6275      6274      6276      6274      6324      6324      6325
      6324      6326      6324      6327      6327      6328      6327      6329
      6327      6330      6330      6331      6330      6332      6330      6333
      6333      6334      6333      6335      6333      6336      6336      6337
      6336      6338      6336      6339      6339      6340      6339      6341
      6339      6342      6342      6343      6342      6344      6342      6345
      6345      6346      6345      6347      6345      6348      6348      6349
      6348      6350      6348      6351      6351      6352      6351      6353
      6351      6354      6354      6355      6354      6356      6354      6357
      6357      6358      6357      6359      6357      6360      6360      6361
      6360      6362      6360      6363      6363      6364      6363      6365
      6363      6366      6367      6371      6367      6375      6367      6379
      6371      6372      6371      6373      6371      6374      6375      6376
      6375      6377      6375      6378      6379      6380      6379      6381
      6379      6382      6367      6368      6368      6369      6368      6370
      6368      6383      6383      6384      6383      6385      6383      6389
      6390      6391      6389      6386      6386      6390      6386      6387
      6386      6388      6391      6392      6391      6393      6391      6394
      6394      6395      6394      6402      6394      6396      6402      6403
      6402      6404      6402      6405      6396      6397      6397      6399
      6397      6398      6399      6400      6399      6401      6399      6411
      6411      6412      6411      6413      6411      6414      6414      6415
      6414      6416      6414      6417      6417      6418      6417      6419
      6417      6420      6420      6421      6420      6422      6420      6423
      6423      6424      6423      6425      6423      6426      6426      6427
      6426      6428      6426      6429      6429      6430      6429      6431
      6431      6432      6431      6433      6433      6434      6433      6435
      6433      6436      6436      6437      6436      6438      6436      6439
      6439      6440      6439      6441      6439      6442      6442      6443
      6442      6444      6442      6445      6445      6446      6445      6447
      6445      6448      6448      6449      6448      6450      6448      6451
      6451      6452      6451      6453      6451      6454      6454      6455
      6454      6456      6454      6457      6405      6406      6406      6408
      6406      6407      6408      6409      6408      6410      6408      6458
      6458      6459      6458      6460      6458      6461      6461      6462
      6461      6463      6461      6464      6464      6465      6464      6466
      6464      6467      6467      6468      6467      6469      6467      6470
      6470      6471      6470      6472      6470      6473      6473      6474
      6473      6475      6473      6476      6476      6477      6476      6478
      6476      6479      6479      6480      6479      6481      6479      6482
      6482      6483      6482      6484      6482      6485      6485      6486
      6485      6487      6485      6488      6488      6489      6488      6490
      6488      6491      6491      6492      6491      6493      6491      6494
      6494      6495      6494      6496      6494      6497      6497      6498
      6497      6499      6497      6500      6501      6505      6501      6509
      6501      6513      6505      6506      6505      6507      6505      6508
      6509      6510      6509      6511      6509      6512      6513      6514
      6513      6515      6513      6516      6501      6502      6502      6503
      6502      6504      6502      6517      6517      6518      6517      6519
      6517      6523      6524      6525      6523      6520      6520      6524
      6520      6521      6520      6522      6525      6526      6525      6527
      6525      6528      6528      6529      6528      6536      6528      6530
      6536      6537      6536      6538      6536      6539      6530      6531
      6531      6533      6531      6532      6533      6534      6533      6535
      6533      6545      6545      6546      6545      6547      6545      6548
      6548      6549      6548      6550      6548      6551      6551      6552
      6551      6553      6551      6554      6554      6555      6554      6556
      6554      6557      6557      6558      6557      6559      6557      6560
      6560      6561      6560      6562      6560      6563      6563      6564
      6563      6565      6565      6566      6565      6567      6567      6568
      6567      6569      6567      6570      6570      6571      6570      6572
      6570      6573      6573      6574      6573      6575      6573      6576
      6576      6577      6576      6578      6576      6579      6579      6580
      6579      6581      6579      6582      6582      6583      6582      6584
      6582      6585      6585      6586      6585      6587      6585      6588
      6588      6589      6588      6590      6588      6591      6539      6540
      6540      6542      6540      6541      6542      6543      6542      6544
      6542      6592      6592      6593      6592      6594      6592      6595
      6595      6596      6595      6597      6595      6598      6598      6599
      6598      6600      6598      6601      6601      6602      6601      6603
      6601      6604      6604      6605      6604      6606      6604      6607
      6607      6608      6607      6609      6607      6610      6610      6611
      6610      6612      6610      6613      6613      6614      6613      6615
      6613      6616      6616      6617      6616      6618      6616      6619
      6619      6620      6619      6621      6619      6622      6622      6623
      6622      6624      6622      6625      6625      6626      6625      6627
      6625      6628      6628      6629      6628      6630      6628      6631
      6631      6632      6631      6633      6631      6634      6635      6639
      6635      6643      6635      6647      6639      6640      6639      6641
      6639      6642      6643      6644      6643      6645      6643      6646
      6647      6648      6647      6649      6647      6650      6635      6636
      6636      6637      6636      6638      6636      6651      6651      6652
      6651      6653      6651      6657      6658      6659      6657      6654
      6654      6658      6654      6655      6654      6656      6659      6660
      6659      6661      6659      6662      6662      6663      6662      6670
      6662      6664      6670      6671      6670      6672      6670      6673
      6664      6665      6665      6667      6665      6666      6667      6668
      6667      6669      6667      6679      6679      6680      6679      6681
      6679      6682      6682      6683      6682      6684      6682      6685
      6685      6686      6685      6687      6685      6688      6688      6689
      6688      6690      6688      6691      6691      6692      6691      6693
      6691      6694      6694      6695      6694      6696      6694      6697
      6697      6698      6697      6699      6699      6700      6699      6701
      6701      6702      6701      6703      6701      6704      6704      6705
      6704      6706      6704      6707      6707      6708      6707      6709
      6707      6710      6710      6711      6710      6712      6710      6713
      6713      6714      6713      6715      6713      6716      6716      6717
      6716      6718      6716      6719      6719      6720      6719      6721
      6719      6722      6722      6723      6722      6724      6722      6725
      6673      6674      6674      6676      6674      6675      6676      6677
      6676      6678      6676      6726      6726      6727      6726      6728
      6726      6729      6729      6730      6729      6731      6729      6732
      6732      6733      6732      6734      6732      6735      6735      6736
      6735      6737      6735      6738      6738      6739      6738      6740
      6738      6741      6741      6742      6741      6743      6741      6744
      6744      6745      6744      6746      6744      6747      6747      6748
      6747      6749      6747      6750      6750      6751      6750      6752
      6750      6753      6753      6754      6753      6755      6753      6756
      6756      6757      6756      6758      6756      6759      6759      6760
      6759      6761      6759      6762      6762      6763      6762      6764
      6762      6765      6765      6766      6765      6767      6765      6768
      6769      6773      6769      6777      6769      6781      6773      6774
      6773      6775      6773      6776      6777      6778      6777      6779
      6777      6780      6781      6782      6781      6783      6781      6784
      6769      6770      6770      6771      6770      6772      6770      6785
      6785      6786      6785      6787      6785      6791      6792      6793
      6791      6788      6788      6792      6788      6789      6788      6790
      6793      6794      6793      6795      6793      6796      6796      6797
      6796      6804      6796      6798      6804      6805      6804      6806
      6804      6807      6798      6799      6799      6801      6799      6800
      6801      6802      6801      6803      6801      6813      6813      6814
      6813      6815      6813      6816      6816      6817      6816      6818
      6816      6819      6819      6820      6819      6821      6819      6822
      6822      6823      6822      6824      6822      6825      6825      6826
      6825      6827      6825      6828      6828      6829      6828      6830
      6828      6831      6831      6832      6831      6833      6833      6834
      6833      6835      6835      6836      6835      6837      6835      6838
      6838      6839      6838      6840      6838      6841      6841      6842
      6841      6843      6841      6844      6844      6845      6844      6846
      6844      6847      6847      6848      6847      6849      6847      6850
      6850      6851      6850      6852      6850      6853      6853      6854
      6853      6855      6853      6856      6856      6857      6856      6858
      6856      6859      6807      6808      6808      6810      6808      6809
      6810      6811      6810      6812      6810      6860      6860      6861
      6860      6862      6860      6863      6863      6864      6863      6865
      6863      6866      6866      6867      6866      6868      6866      6869
      6869      6870      6869      6871      6869      6872      6872      6873
      6872      6874      6872      6875      6875      6876      6875      6877
      6875      6878      6878      6879      6878      6880      6878      6881
      6881      6882      6881      6883      6881      6884      6884      6885
      6884      6886      6884      6887      6887      6888      6887      6889
      6887      6890      6890      6891      6890      6892      6890      6893
      6893      6894      6893      6895      6893      6896      6896      6897
      6896      6898      6896      6899      6899      6900      6899      6901
      6899      6902      6903      6907      6903      6911      6903      6915
      6907      6908      6907      6909      6907      6910      6911      6912
      6911      6913      6911      6914      6915      6916      6915      6917
      6915      6918      6903      6904      6904      6905      6904      6906
      6904      6919      6919      6920      6919      6921      6919      6925
      6926      6927      6925      6922      6922      6926      6922      6923
      6922      6924      6927      6928      6927      6929      6927      6930
      6930      6931      6930      6938      6930      6932      6938      6939
      6938      6940      6938      6941      6932      6933      6933      6935
      6933      6934      6935      6936      6935      6937      6935      6947
      6947      6948      6947      6949      6947      6950      6950      6951
      6950      6952      6950      6953      6953      6954      6953      6955
      6953      6956      6956      6957      6956      6958      6956      6959
      6959      6960      6959      6961      6959      6962      6962      6963
      6962      6964      6962      6965      6965      6966      6965      6967
      6967      6968      6967      6969      6969      6970      6969      6971
      6969      6972      6972      6973      6972      6974      6972      6975
      6975      6976      6975      6977      6975      6978      6978      6979
      6978      6980      6978      6981      6981      6982      6981      6983
      6981      6984      6984      6985      6984      6986      6984      6987
      6987      6988      6987      6989      6987      6990      6990      6991
      6990      6992      6990      6993      6941      6942      6942      6944
      6942      6943      6944      6945      6944      6946      6944      6994
      6994      6995      6994      6996      6994      6997      6997      6998
      6997      6999      6997      7000      7000      7001      7000      7002
      7000      7003      7003      7004      7003      7005      7003      7006
      7006      7007      7006      7008      7006      7009      7009      7010
      7009      7011      7009      7012      7012      7013      7012      7014
      7012      7015      7015      7016      7015      7017      7015      7018
      7018      7019      7018      7020      7018      7021      7021      7022
      7021      7023      7021      7024      7024      7025      7024      7026
      7024      7027      7027      7028      7027      7029      7027      7030
      7030      7031      7030      7032      7030      7033      7033      7034
      7033      7035      7033      7036      7037      7041      7037      7045
      7037      7049      7041      7042      7041      7043      7041      7044
      7045      7046      7045      7047      7045      7048      7049      7050
      7049      7051      7049      7052      7037      7038      7038      7039
      7038      7040      7038      7053      7053      7054      7053      7055
      7053      7059      7060      7061      7059      7056      7056      7060
      7056      7057      7056      7058      7061      7062      7061      7063
      7061      7064      7064      7065      7064      7072      7064      7066
      7072      7073      7072      7074      7072      7075      7066      7067
      7067      7069      7067      7068      7069      7070      7069      7071
      7069      7081      7081      7082      7081      7083      7081      7084
      7084      7085      7084      7086      7084      7087      7087      7088
      7087      7089      7087      7090      7090      7091      7090      7092
      7090      7093      7093      7094      7093      7095      7093      7096
      7096      7097      7096      7098      7096      7099      7099      7100
      7099      7101      7101      7102      7101      7103      7103      7104
      7103      7105      7103      7106      7106      7107      7106      7108
      7106      7109      7109      7110      7109      7111      7109      7112
      7112      7113      7112      7114      7112      7115      7115      7116
      7115      7117      7115      7118      7118      7119      7118      7120
      7118      7121      7121      7122      7121      7123      7121      7124
      7124      7125      7124      7126      7124      7127      7075      7076
      7076      7078      7076      7077      7078      7079      7078      7080
      7078      7128      7128      7129      7128      7130      7128      7131
      7131      7132      7131      7133      7131      7134      7134      7135
      7134      7136      7134      7137      7137      7138      7137      7139
      7137      7140      7140      7141      7140      7142      7140      7143
      7143      7144      7143      7145      7143      7146      7146      7147
      7146      7148      7146      7149      7149      7150      7149      7151
      7149      7152      7152      7153      7152      7154      7152      7155
      7155      7156      7155      7157      7155      7158      7158      7159
      7158      7160      7158      7161      7161      7162      7161      7163
      7161      7164      7164      7165      7164      7166      7164      7167
      7167      7168      7167      7169      7167      7170      7171      7175
      7171      7179      7171      7183      7175      7176      7175      7177
      7175      7178      7179      7180      7179      7181      7179      7182
      7183      7184      7183      7185      7183      7186      7171      7172
      7172      7173      7172      7174      7172      7187      7187      7188
      7187      7189      7187      7193      7194      7195      7193      7190
      7190      7194      7190      7191      7190      7192      7195      7196
      7195      7197      7195      7198      7198      7199      7198      7206
      7198      7200      7206      7207      7206      7208      7206      7209
      7200      7201      7201      7203      7201      7202      7203      7204
      7203      7205      7203      7215      7215      7216      7215      7217
      7215      7218      7218      7219      7218      7220      7218      7221
      7221      7222      7221      7223      7221      7224      7224      7225
      7224      7226      7224      7227      7227      7228      7227      7229
      7227      7230      7230      7231      7230      7232      7230      7233
      7233      7234      7233      7235      7235      7236      7235      7237
      7237      7238      7237      7239      7237      7240      7240      7241
      7240      7242      7240      7243      7243      7244      7243      7245
      7243      7246      7246      7247      7246      7248      7246      7249
      7249      7250      7249      7251      7249      7252      7252      7253
      7252      7254      7252      7255      7255      7256      7255      7257
      7255      7258      7258      7259      7258      7260      7258      7261
      7209      7210      7210      7212      7210      7211      7212      7213
      7212      7214      7212      7262      7262      7263      7262      7264
      7262      7265      7265      7266      7265      7267      7265      7268
      7268      7269      7268      7270      7268      7271      7271      7272
      7271      7273      7271      7274      7274      7275      7274      7276
      7274      7277      7277      7278      7277      7279      7277      7280
      7280      7281      7280      7282      7280      7283      7283      7284
      7283      7285      7283      7286      7286      7287      7286      7288
      7286      7289      7289      7290      7289      7291      7289      7292
      7292      7293      7292      7294      7292      7295      7295      7296
      7295      7297      7295      7298      7298      7299      7298      7300
      7298      7301      7301      7302      7301      7303      7301      7304
      7305      7309      7305      7313      7305      7317      7309      7310
      7309      7311      7309      7312      7313      7314      7313      7315
      7313      7316      7317      7318      7317      7319      7317      7320
      7305      7306      7306      7307      7306      7308      7306      7321
      7321      7322      7321      7323      7321      7327      7328      7329
      7327      7324      7324      7328      7324      7325      7324      7326
      7329      7330      7329      7331      7329      7332      7332      7333
      7332      7340      7332      7334      7340      7341      7340      7342
      7340      7343      7334      7335      7335      7337      7335      7336
      7337      7338      7337      7339      7337      7349      7349      7350
      7349      7351      7349      7352      7352      7353      7352      7354
      7352      7355      7355      7356      7355      7357      7355      7358
      7358      7359      7358      7360      7358      7361      7361      7362
      7361      7363      7361      7364      7364      7365      7364      7366
      7364      7367      7367      7368      7367      7369      7369      7370
      7369      7371      7371      7372      7371      7373      7371      7374
      7374      7375      7374      7376      7374      7377      7377      7378
      7377      7379      7377      7380      7380      7381      7380      7382
      7380      7383      7383      7384      7383      7385      7383      7386
      7386      7387      7386      7388      7386      7389      7389      7390
      7389      7391      7389      7392      7392      7393      7392      7394
      7392      7395      7343      7344      7344      7346      7344      7345
      7346      7347      7346      7348      7346      7396      7396      7397
      7396      7398      7396      7399      7399      7400      7399      7401
      7399      7402      7402      7403      7402      7404      7402      7405
      7405      7406      7405      7407      7405      7408      7408      7409
      7408      7410      7408      7411      7411      7412      7411      7413
      7411      7414      7414      7415      7414      7416      7414      7417
      7417      7418      7417      7419      7417      7420      7420      7421
      7420      7422      7420      7423      7423      7424      7423      7425
      7423      7426      7426      7427      7426      7428      7426      7429
      7429      7430      7429      7431      7429      7432      7432      7433
      7432      7434      7432      7435      7435      7436      7435      7437
      7435      7438      7439      7443      7439      7447      7439      7451
      7443      7444      7443      7445      7443      7446      7447      7448
      7447      7449      7447      7450      7451      7452      7451      7453
      7451      7454      7439      7440      7440      7441      7440      7442
      7440      7455      7455      7456      7455      7457      7455      7461
      7462      7463      7461      7458      7458      7462      7458      7459
      7458      7460      7463      7464      7463      7465      7463      7466
      7466      7467      7466      7474      7466      7468      7474      7475
      7474      7476      7474      7477      7468      7469      7469      7471
      7469      7470      7471      7472      7471      7473      7471      7483
      7483      7484      7483      7485      7483      7486      7486      7487
      7486      7488      7486      7489      7489      7490      7489      7491
      7489      7492      7492      7493      7492      7494      7492      7495
      7495      7496      7495      7497      7495      7498      7498      7499
      7498      7500      7498      7501      7501      7502      7501      7503
      7503      7504      7503      7505      7505      7506      7505      7507
      7505      7508      7508      7509      7508      7510      7508      7511
      7511      7512      7511      7513      7511      7514      7514      7515
      7514      7516      7514      7517      7517      7518      7517      7519
      7517      7520      7520      7521      7520      7522      7520      7523
      7523      7524      7523      7525      7523      7526      7526      7527
      7526      7528      7526      7529      7477      7478      7478      7480
      7478      7479      7480      7481      7480      7482      7480      7530
      7530      7531      7530      7532      7530      7533      7533      7534
      7533      7535      7533      7536      7536      7537      7536      7538
      7536      7539      7539      7540      7539      7541      7539      7542
      7542      7543      7542      7544      7542      7545      7545      7546
      7545      7547      7545      7548      7548      7549      7548      7550
      7548      7551      7551      7552      7551      7553      7551      7554
      7554      7555      7554      7556      7554      7557      7557      7558
      7557      7559      7557      7560      7560      7561      7560      7562
      7560      7563      7563      7564      7563      7565      7563      7566
      7566      7567      7566      7568      7566      7569      7569      7570
      7569      7571      7569      7572      7573      7577      7573      7581
      7573      7585      7577      7578      7577      7579      7577      7580
      7581      7582      7581      7583      7581      7584      7585      7586
      7585      7587      7585      7588      7573      7574      7574      7575
      7574      7576      7574      7589      7589      7590      7589      7591
      7589      7595      7596      7597      7595      7592      7592      7596
      7592      7593      7592      7594      7597      7598      7597      7599
      7597      7600      7600      7601      7600      7608      7600      7602
      7608      7609      7608      7610      7608      7611      7602      7603
      7603      7605      7603      7604      7605      7606      7605      7607
      7605      7617      7617      7618      7617      7619      7617      7620
      7620      7621      7620      7622      7620      7623      7623      7624
      7623      7625      7623      7626      7626      7627      7626      7628
      7626      7629      7629      7630      7629      7631      7629      7632
      7632      7633      7632      7634      7632      7635      7635      7636
      7635      7637      7637      7638      7637      7639      7639      7640
      7639      7641      7639      7642      7642      7643      7642      7644
      7642      7645      7645      7646      7645      7647      7645      7648
      7648      7649      7648      7650      7648      7651      7651      7652
      7651      7653      7651      7654      7654      7655      7654      7656
      7654      7657      7657      7658      7657      7659      7657      7660
      7660      7661      7660      7662      7660      7663      7611      7612
      7612      7614      7612      7613      7614      7615      7614      7616
      7614      7664      7664      7665      7664      7666      7664      7667
      7667      7668      7667      7669      7667      7670      7670      7671
      7670      7672      7670      7673      7673      7674      7673      7675
      7673      7676      7676      7677      7676      7678      7676      7679
      7679      7680      7679      7681      7679      7682      7682      7683
      7682      7684      7682      7685      7685      7686      7685      7687
      7685      7688      7688      7689      7688      7690      7688      7691
      7691      7692      7691      7693      7691      7694      7694      7695
      7694      7696      7694      7697      7697      7698      7697      7699
      7697      7700      7700      7701      7700      7702      7700      7703
      7703      7704      7703      7705      7703      7706      7707      7711
      7707      7715      7707      7719      7711      7712      7711      7713
      7711      7714      7715      7716      7715      7717      7715      7718
      7719      7720      7719      7721      7719      7722      7707      7708
      7708      7709      7708      7710      7708      7723      7723      7724
      7723      7725      7723      7729      7730      7731      7729      7726
      7726      7730      7726      7727      7726      7728      7731      7732
      7731      7733      7731      7734      7734      7735      7734      7742
      7734      7736      7742      7743      7742      7744      7742      7745
      7736      7737      7737      7739      7737      7738      7739      7740
      7739      7741      7739      7751      7751      7752      7751      7753
      7751      7754      7754      7755      7754      7756      7754      7757
      7757      7758      7757      7759      7757      7760      7760      7761
      7760      7762      7760      7763      7763      7764      7763      7765
      7763      7766      7766      7767      7766      7768      7766      7769
      7769      7770      7769      7771      7771      7772      7771      7773
      7773      7774      7773      7775      7773      7776      7776      7777
      7776      7778      7776      7779      7779      7780      7779      7781
      7779      7782      7782      7783      7782      7784      7782      7785
      7785      7786      7785      7787      7785      7788      7788      7789
      7788      7790      7788      7791      7791      7792      7791      7793
      7791      7794      7794      7795      7794      7796      7794      7797
      7745      7746      7746      7748      7746      7747      7748      7749
      7748      7750      7748      7798      7798      7799      7798      7800
      7798      7801      7801      7802      7801      7803      7801      7804
      7804      7805      7804      7806      7804      7807      7807      7808
      7807      7809      7807      7810      7810      7811      7810      7812
      7810      7813      7813      7814      7813      7815      7813      7816
      7816      7817      7816      7818      7816      7819      7819      7820
      7819      7821      7819      7822      7822      7823      7822      7824
      7822      7825      7825      7826      7825      7827      7825      7828
      7828      7829      7828      7830      7828      7831      7831      7832
      7831      7833      7831      7834      7834      7835      7834      7836
      7834      7837      7837      7838      7837      7839      7837      7840
      7841      7845      7841      7849      7841      7853      7845      7846
      7845      7847      7845      7848      7849      7850      7849      7851
      7849      7852      7853      7854      7853      7855      7853      7856
      7841      7842      7842      7843      7842      7844      7842      7857
      7857      7858      7857      7859      7857      7863      7864      7865
      7863      7860      7860      7864      7860      7861      7860      7862
      7865      7866      7865      7867      7865      7868      7868      7869
      7868      7876      7868      7870      7876      7877      7876      7878
      7876      7879      7870      7871      7871      7873      7871      7872
      7873      7874      7873      7875      7873      7885      7885      7886
      7885      7887      7885      7888      7888      7889      7888      7890
      7888      7891      7891      7892      7891      7893      7891      7894
      7894      7895      7894      7896      7894      7897      7897      7898
      7897      7899      7897      7900      7900      7901      7900      7902
      7900      7903      7903      7904      7903      7905      7905      7906
      7905      7907      7907      7908      7907      7909      7907      7910
      7910      7911      7910      7912      7910      7913      7913      7914
      7913      7915      7913      7916      7916      7917      7916      7918
      7916      7919      7919      7920      7919      7921      7919      7922
      7922      7923      7922      7924      7922      7925      7925      7926
      7925      7927      7925      7928      7928      7929      7928      7930
      7928      7931      7879      7880      7880      7882      7880      7881
      7882      7883      7882      7884      7882      7932      7932      7933
      7932      7934      7932      7935      7935      7936      7935      7937
      7935      7938      7938      7939      7938      7940      7938      7941
      7941      7942      7941      7943      7941      7944      7944      7945
      7944      7946      7944      7947      7947      7948      7947      7949
      7947      7950      7950      7951      7950      7952      7950      7953
      7953      7954      7953      7955      7953      7956      7956      7957
      7956      7958      7956      7959      7959      7960      7959      7961
      7959      7962      7962      7963      7962      7964      7962      7965
      7965      7966      7965      7967      7965      7968      7968      7969
      7968      7970      7968      7971      7971      7972      7971      7973
      7971      7974      7975      7979      7975      7983      7975      7987
      7979      7980      7979      7981      7979      7982      7983      7984
      7983      7985      7983      7986      7987      7988      7987      7989
      7987      7990      7975      7976      7976      7977      7976      7978
      7976      7991      7991      7992      7991      7993      7991      7997
      7998      7999      7997      7994      7994      7998      7994      7995
      7994      7996      7999      8000      7999      8001      7999      8002
      8002      8003      8002      8010      8002      8004      8010      8011
      8010      8012      8010      8013      8004      8005      8005      8007
      8005      8006      8007      8008      8007      8009      8007      8019
      8019      8020      8019      8021      8019      8022      8022      8023
      8022      8024      8022      8025      8025      8026      8025      8027
      8025      8028      8028      8029      8028      8030      8028      8031
      8031      8032      8031      8033      8031      8034      8034      8035
      8034      8036      8034      8037      8037      8038      8037      8039
      8039      8040      8039      8041      8041      8042      8041      8043
      8041      8044      8044      8045      8044      8046      8044      8047
      8047      8048      8047      8049      8047      8050      8050      8051
      8050      8052      8050      8053      8053      8054      8053      8055
      8053      8056      8056      8057      8056      8058      8056      8059
      8059      8060      8059      8061      8059      8062      8062      8063
      8062      8064      8062      8065      8013      8014      8014      8016
      8014      8015      8016      8017      8016      8018      8016      8066
      8066      8067      8066      8068      8066      8069      8069      8070
      8069      8071      8069      8072      8072      8073      8072      8074
      8072      8075      8075      8076      8075      8077      8075      8078
      8078      8079      8078      8080      8078      8081      8081      8082
      8081      8083      8081      8084      8084      8085      8084      8086
      8084      8087      8087      8088      8087      8089      8087      8090
      8090      8091      8090      8092      8090      8093      8093      8094
      8093      8095      8093      8096      8096      8097      8096      8098
      8096      8099      8099      8100      8099      8101      8099      8102
      8102      8103      8102      8104      8102      8105      8105      8106
      8105      8107      8105      8108      8109      8113      8109      8117
      8109      8121      8113      8114      8113      8115      8113      8116
      8117      8118      8117      8119      8117      8120      8121      8122
      8121      8123      8121      8124      8109      8110      8110      8111
      8110      8112      8110      8125      8125      8126      8125      8127
      8125      8131      8132      8133      8131      8128      8128      8132
      8128      8129      8128      8130      8133      8134      8133      8135
      8133      8136      8136      8137      8136      8144      8136      8138
      8144      8145      8144      8146      8144      8147      8138      8139
      8139      8141      8139      8140      8141      8142      8141      8143
      8141      8153      8153      8154      8153      8155      8153      8156
      8156      8157      8156      8158      8156      8159      8159      8160
      8159      8161      8159      8162      8162      8163      8162      8164
      8162      8165      8165      8166      8165      8167      8165      8168
      8168      8169      8168      8170      8168      8171      8171      8172
      8171      8173      8173      8174      8173      8175      8175      8176
      8175      8177      8175      8178      8178      8179      8178      8180
      8178      8181      8181      8182      8181      8183      8181      8184
      8184      8185      8184      8186      8184      8187      8187      8188
      8187      8189      8187      8190      8190      8191      8190      8192
      8190      8193      8193      8194      8193      8195      8193      8196
      8196      8197      8196      8198      8196      8199      8147      8148
      8148      8150      8148      8149      8150      8151      8150      8152
      8150      8200      8200      8201      8200      8202      8200      8203
      8203      8204      8203      8205      8203      8206      8206      8207
      8206      8208      8206      8209      8209      8210      8209      8211
      8209      8212      8212      8213      8212      8214      8212      8215
      8215      8216      8215      8217      8215      8218      8218      8219
      8218      8220      8218      8221      8221      8222      8221      8223
      8221      8224      8224      8225      8224      8226      8224      8227
      8227      8228      8227      8229      8227      8230      8230      8231
      8230      8232      8230      8233      8233      8234      8233      8235
      8233      8236      8236      8237      8236      8238      8236      8239
      8239      8240      8239      8241      8239      8242      8243      8247
      8243      8251      8243      8255      8247      8248      8247      8249
      8247      8250      8251      8252      8251      8253      8251      8254
      8255      8256      8255      8257      8255      8258      8243      8244
      8244      8245      8244      8246      8244      8259      8259      8260
      8259      8261      8259      8265      8266      8267      8265      8262
      8262      8266      8262      8263      8262      8264      8267      8268
      8267      8269      8267      8270      8270      8271      8270      8278
      8270      8272      8278      8279      8278      8280      8278      8281
      8272      8273      8273      8275      8273      8274      8275      8276
      8275      8277      8275      8287      8287      8288      8287      8289
      8287      8290      8290      8291      8290      8292      8290      8293
      8293      8294      8293      8295      8293      8296      8296      8297
      8296      8298      8296      8299      8299      8300      8299      8301
      8299      8302      8302      8303      8302      8304      8302      8305
      8305      8306      8305      8307      8307      8308      8307      8309
      8309      8310      8309      8311      8309      8312      8312      8313
      8312      8314      8312      8315      8315      8316      8315      8317
      8315      8318      8318      8319      8318      8320      8318      8321
      8321      8322      8321      8323      8321      8324      8324      8325
      8324      8326      8324      8327      8327      8328      8327      8329
      8327      8330      8330      8331      8330      8332      8330      8333
      8281      8282      8282      8284      8282      8283      8284      8285
      8284      8286      8284      8334      8334      8335      8334      8336
      8334      8337      8337      8338      8337      8339      8337      8340
      8340      8341      8340      8342      8340      8343      8343      8344
      8343      8345      8343      8346      8346      8347      8346      8348
      8346      8349      8349      8350      8349      8351      8349      8352
      8352      8353      8352      8354      8352      8355      8355      8356
      8355      8357      8355      8358      8358      8359      8358      8360
      8358      8361      8361      8362      8361      8363      8361      8364
      8364      8365      8364      8366      8364      8367      8367      8368
      8367      8369      8367      8370      8370      8371      8370      8372
      8370      8373      8373      8374      8373      8375      8373      8376
      8377      8381      8377      8385      8377      8389      8381      8382
      8381      8383      8381      8384      8385      8386      8385      8387
      8385      8388      8389      8390      8389      8391      8389      8392
      8377      8378      8378      8379      8378      8380      8378      8393
      8393      8394      8393      8395      8393      8399      8400      8401
      8399      8396      8396      8400      8396      8397      8396      8398
      8401      8402      8401      8403      8401      8404      8404      8405
      8404      8412      8404      8406      8412      8413      8412      8414
      8412      8415      8406      8407      8407      8409      8407      8408
      8409      8410      8409      8411      8409      8421      8421      8422
      8421      8423      8421      8424      8424      8425      8424      8426
      8424      8427      8427      8428      8427      8429      8427      8430
      8430      8431      8430      8432      8430      8433      8433      8434
      8433      8435      8433      8436      8436      8437      8436      8438
      8436      8439      8439      8440      8439      8441      8441      8442
      8441      8443      8443      8444      8443      8445      8443      8446
      8446      8447      8446      8448      8446      8449      8449      8450
      8449      8451      8449      8452      8452      8453      8452      8454
      8452      8455      8455      8456      8455      8457      8455      8458
      8458      8459      8458      8460      8458      8461      8461      8462
      8461      8463      8461      8464      8464      8465      8464      8466
      8464      8467      8415      8416      8416      8418      8416      8417
      8418      8419      8418      8420      8418      8468      8468      8469
      8468      8470      8468      8471      8471      8472      8471      8473
      8471      8474      8474      8475      8474      8476      8474      8477
      8477      8478      8477      8479      8477      8480      8480      8481
      8480      8482      8480      8483      8483      8484      8483      8485
      8483      8486      8486      8487      8486      8488      8486      8489
      8489      8490      8489      8491      8489      8492      8492      8493
      8492      8494      8492      8495      8495      8496      8495      8497
      8495      8498      8498      8499      8498      8500      8498      8501
      8501      8502      8501      8503      8501      8504      8504      8505
      8504      8506      8504      8507      8507      8508      8507      8509
      8507      8510      8511      8515      8511      8519      8511      8523
      8515      8516      8515      8517      8515      8518      8519      8520
      8519      8521      8519      8522      8523      8524      8523      8525
      8523      8526      8511      8512      8512      8513      8512      8514
      8512      8527      8527      8528      8527      8529      8527      8533
      8534      8535      8533      8530      8530      8534      8530      8531
      8530      8532      8535      8536      8535      8537      8535      8538
      8538      8539      8538      8546      8538      8540      8546      8547
      8546      8548      8546      8549      8540      8541      8541      8543
      8541      8542      8543      8544      8543      8545      8543      8555
      8555      8556      8555      8557      8555      8558      8558      8559
      8558      8560      8558      8561      8561      8562      8561      8563
      8561      8564      8564      8565      8564      8566      8564      8567
      8567      8568      8567      8569      8567      8570      8570      8571
      8570      8572      8570      8573      8573      8574      8573      8575
      8575      8576      8575      8577      8577      8578      8577      8579
      8577      8580      8580      8581      8580      8582      8580      8583
      8583      8584      8583      8585      8583      8586      8586      8587
      8586      8588      8586      8589      8589      8590      8589      8591
      8589      8592      8592      8593      8592      8594      8592      8595
      8595      8596      8595      8597      8595      8598      8598      8599
      8598      8600      8598      8601      8549      8550      8550      8552
      8550      8551      8552      8553      8552      8554      8552      8602
      8602      8603      8602      8604      8602      8605      8605      8606
      8605      8607      8605      8608      8608      8609      8608      8610
      8608      8611      8611      8612      8611      8613      8611      8614
      8614      8615      8614      8616      8614      8617      8617      8618
      8617      8619      8617      8620      8620      8621      8620      8622
      8620      8623      8623      8624      8623      8625      8623      8626
      8626      8627      8626      8628      8626      8629      8629      8630
      8629      8631      8629      8632      8632      8633      8632      8634
      8632      8635      8635      8636      8635      8637      8635      8638
      8638      8639      8638      8640      8638      8641      8641      8642
      8641      8643      8641      8644      8645      8649      8645      8653
      8645      8657      8649      8650      8649      8651      8649      8652
      8653      8654      8653      8655      8653      8656      8657      8658
      8657      8659      8657      8660      8645      8646      8646      8647
      8646      8648      8646      8661      8661      8662      8661      8663
      8661      8667      8668      8669      8667      8664      8664      8668
      8664      8665      8664      8666      8669      8670      8669      8671
      8669      8672      8672      8673      8672      8680      8672      8674
      8680      8681      8680      8682      8680      8683      8674      8675
      8675      8677      8675      8676      8677      8678      8677      8679
      8677      8689      8689      8690      8689      8691      8689      8692
      8692      8693      8692      8694      8692      8695      8695      8696
      8695      8697      8695      8698      8698      8699      8698      8700
      8698      8701      8701      8702      8701      8703      8701      8704
      8704      8705      8704      8706      8704      8707      8707      8708
      8707      8709      8709      8710      8709      8711      8711      8712
      8711      8713      8711      8714      8714      8715      8714      8716
      8714      8717      8717      8718      8717      8719      8717      8720
      8720      8721      8720      8722      8720      8723      8723      8724
      8723      8725      8723      8726      8726      8727      8726      8728
      8726      8729      8729      8730      8729      8731      8729      8732
      8732      8733      8732      8734      8732      8735      8683      8684
      8684      8686      8684      8685      8686      8687      8686      8688
      8686      8736      8736      8737      8736      8738      8736      8739
      8739      8740      8739      8741      8739      8742      8742      8743
      8742      8744      8742      8745      8745      8746      8745      8747
      8745      8748      8748      8749      8748      8750      8748      8751
      8751      8752      8751      8753      8751      8754      8754      8755
      8754      8756      8754      8757      8757      8758      8757      8759
      8757      8760      8760      8761      8760      8762      8760      8763
      8763      8764      8763      8765      8763      8766      8766      8767
      8766      8768      8766      8769      8769      8770      8769      8771
      8769      8772      8772      8773      8772      8774      8772      8775
      8775      8776      8775      8777      8775      8778      8779      8783
      8779      8787      8779      8791      8783      8784      8783      8785
      8783      8786      8787      8788      8787      8789      8787      8790
      8791      8792      8791      8793      8791      8794      8779      8780
      8780      8781      8780      8782      8780      8795      8795      8796
      8795      8797      8795      8801      8802      8803      8801      8798
      8798      8802      8798      8799      8798      8800      8803      8804
      8803      8805      8803      8806      8806      8807      8806      8814
      8806      8808      8814      8815      8814      8816      8814      8817
      8808      8809      8809      8811      8809      8810      8811      8812
      8811      8813      8811      8823      8823      8824      8823      8825
      8823      8826      8826      8827      8826      8828      8826      8829
      8829      8830      8829      8831      8829      8832      8832      8833
      8832      8834      8832      8835      8835      8836      8835      8837
      8835      8838      8838      8839      8838      8840      8838      8841
      8841      8842      8841      8843      8843      8844      8843      8845
      8845      8846      8845      8847      8845      8848      8848      8849
      8848      8850      8848      8851      8851      8852      8851      8853
      8851      8854      8854      8855      8854      8856      8854      8857
      8857      8858      8857      8859      8857      8860      8860      8861
      8860      8862      8860      8863      8863      8864      8863      8865
      8863      8866      8866      8867      8866      8868      8866      8869
      8817      8818      8818      8820      8818      8819      8820      8821
      8820      8822      8820      8870      8870      8871      8870      8872
      8870      8873      8873      8874      8873      8875      8873      8876
      8876      8877      8876      8878      8876      8879      8879      8880
      8879      8881      8879      8882      8882      8883      8882      8884
      8882      8885      8885      8886      8885      8887      8885      8888
      8888      8889      8888      8890      8888      8891      8891      8892
      8891      8893      8891      8894      8894      8895      8894      8896
      8894      8897      8897      8898      8897      8899      8897      8900
      8900      8901      8900      8902      8900      8903      8903      8904
      8903      8905      8903      8906      8906      8907      8906      8908
      8906      8909      8909      8910      8909      8911      8909      8912
      8913      8917      8913      8921      8913      8925      8917      8918
      8917      8919      8917      8920      8921      8922      8921      8923
      8921      8924      8925      8926      8925      8927      8925      8928
      8913      8914      8914      8915      8914      8916      8914      8929
      8929      8930      8929      8931      8929      8935      8936      8937
      8935      8932      8932      8936      8932      8933      8932      8934
      8937      8938      8937      8939      8937      8940      8940      8941
      8940      8948      8940      8942      8948      8949      8948      8950
      8948      8951      8942      8943      8943      8945      8943      8944
      8945      8946      8945      8947      8945      8957      8957      8958
      8957      8959      8957      8960      8960      8961      8960      8962
      8960      8963      8963      8964      8963      8965      8963      8966
      8966      8967      8966      8968      8966      8969      8969      8970
      8969      8971      8969      8972      8972      8973      8972      8974
      8972      8975      8975      8976      8975      8977      8977      8978
      8977      8979      8979      8980      8979      8981      8979      8982
      8982      8983      8982      8984      8982      8985      8985      8986
      8985      8987      8985      8988      8988      8989      8988      8990
      8988      8991      8991      8992      8991      8993      8991      8994
      8994      8995      8994      8996      8994      8997      8997      8998
      8997      8999      8997      9000      9000      9001      9000      9002
      9000      9003      8951      8952      8952      8954      8952      8953
      8954      8955      8954      8956      8954      9004      9004      9005
      9004      9006      9004      9007      9007      9008      9007      9009
      9007      9010      9010      9011      9010      9012      9010      9013
      9013      9014      9013      9015      9013      9016      9016      9017
      9016      9018      9016      9019      9019      9020      9019      9021
      9019      9022      9022      9023      9022      9024      9022      9025
      9025      9026      9025      9027      9025      9028      9028      9029
      9028      9030      9028      9031      9031      9032      9031      9033
      9031      9034      9034      9035      9034      9036      9034      9037
      9037      9038      9037      9039      9037      9040      9040      9041
      9040      9042      9040      9043      9043      9044      9043      9045
      9043      9046      9047      9051      9047      9055      9047      9059
      9051      9052      9051      9053      9051      9054      9055      9056
      9055      9057      9055      9058      9059      9060      9059      9061
      9059      9062      9047      9048      9048      9049      9048      9050
      9048      9063      9063      9064      9063      9065      9063      9069
      9070      9071      9069      9066      9066      9070      9066      9067
      9066      9068      9071      9072      9071      9073      9071      9074
      9074      9075      9074      9082      9074      9076      9082      9083
      9082      9084      9082      9085      9076      9077      9077      9079
      9077      9078      9079      9080      9079      9081      9079      9091
      9091      9092      9091      9093      9091      9094      9094      9095
      9094      9096      9094      9097      9097      9098      9097      9099
      9097      9100      9100      9101      9100      9102      9100      9103
      9103      9104      9103      9105      9103      9106      9106      9107
      9106      9108      9106      9109      9109      9110      9109      9111
      9111      9112      9111      9113      9113      9114      9113      9115
      9113      9116      9116      9117      9116      9118      9116      9119
      9119      9120      9119      9121      9119      9122      9122      9123
      9122      9124      9122      9125      9125      9126      9125      9127
      9125      9128      9128      9129      9128      9130      9128      9131
      9131      9132      9131      9133      9131      9134      9134      9135
      9134      9136      9134      9137      9085      9086      9086      9088
      9086      9087      9088      9089      9088      9090      9088      9138
      9138      9139      9138      9140      9138      9141      9141      9142
      9141      9143      9141      9144      9144      9145      9144      9146
      9144      9147      9147      9148      9147      9149      9147      9150
      9150      9151      9150      9152      9150      9153      9153      9154
      9153      9155      9153      9156      9156      9157      9156      9158
      9156      9159      9159      9160      9159      9161      9159      9162
      9162      9163      9162      9164      9162      9165      9165      9166
      9165      9167      9165      9168      9168      9169      9168      9170
      9168      9171      9171      9172      9171      9173      9171      9174
      9174      9175      9174      9176      9174      9177      9177      9178
      9177      9179      9177      9180      9181      9185      9181      9189
      9181      9193      9185      9186      9185      9187      9185      9188
      9189      9190      9189      9191      9189      9192      9193      9194
      9193      9195      9193      9196      9181      9182      9182      9183
      9182      9184      9182      9197      9197      9198      9197      9199
      9197      9203      9204      9205      9203      9200      9200      9204
      9200      9201      9200      9202      9205      9206      9205      9207
      9205      9208      9208      9209      9208      9216      9208      9210
      9216      9217      9216      9218      9216      9219      9210      9211
      9211      9213      9211      9212      9213      9214      9213      9215
      9213      9225      9225      9226      9225      9227      9225      9228
      9228      9229      9228      9230      9228      9231      9231      9232
      9231      9233      9231      9234      9234      9235      9234      9236
      9234      9237      9237      9238      9237      9239      9237      9240
      9240      9241      9240      9242      9240      9243      9243      9244
      9243      9245      9245      9246      9245      9247      9247      9248
      9247      9249      9247      9250      9250      9251      9250      9252
      9250      9253      9253      9254      9253      9255      9253      9256
      9256      9257      9256      9258      9256      9259      9259      9260
      9259      9261      9259      9262      9262      9263      9262      9264
      9262      9265      9265      9266      9265      9267      9265      9268
      9268      9269      9268      9270      9268      9271      9219      9220
      9220      9222      9220      9221      9222      9223      9222      9224
      9222      9272      9272      9273      9272      9274      9272      9275
      9275      9276      9275      9277      9275      9278      9278      9279
      9278      9280      9278      9281      9281      9282      9281      9283
      9281      9284      9284      9285      9284      9286      9284      9287
      9287      9288      9287      9289      9287      9290      9290      9291
      9290      9292      9290      9293      9293      9294      9293      9295
      9293      9296      9296      9297      9296      9298      9296      9299
      9299      9300      9299      9301      9299      9302      9302      9303
      9302      9304      9302      9305      9305      9306      9305      9307
      9305      9308      9308      9309      9308      9310      9308      9311
      9311      9312      9311      9313      9311      9314      9315      9319
      9315      9323      9315      9327      9319      9320      9319      9321
      9319      9322      9323      9324      9323      9325      9323      9326
      9327      9328      9327      9329      9327      9330      9315      9316
      9316      9317      9316      9318      9316      9331      9331      9332
      9331      9333      9331      9337      9338      9339      9337      9334
      9334      9338      9334      9335      9334      9336      9339      9340
      9339      9341      9339      9342      9342      9343      9342      9350
      9342      9344      9350      9351      9350      9352      9350      9353
      9344      9345      9345      9347      9345      9346      9347      9348
      9347      9349      9347      9359      9359      9360      9359      9361
      9359      9362      9362      9363      9362      9364      9362      9365
      9365      9366      9365      9367      9365      9368      9368      9369
      9368      9370      9368      9371      9371      9372      9371      9373
      9371      9374      9374      9375      9374      9376      9374      9377
      9377      9378      9377      9379      9379      9380      9379      9381
      9381      9382      9381      9383      9381      9384      9384      9385
      9384      9386      9384      9387      9387      9388      9387      9389
      9387      9390      9390      9391      9390      9392      9390      9393
      9393      9394      9393      9395      9393      9396      9396      9397
      9396      9398      9396      9399      9399      9400      9399      9401
      9399      9402      9402      9403      9402      9404      9402      9405
      9353      9354      9354      9356      9354      9355      9356      9357
      9356      9358      9356      9406      9406      9407      9406      9408
      9406      9409      9409      9410      9409      9411      9409      9412
      9412      9413      9412      9414      9412      9415      9415      9416
      9415      9417      9415      9418      9418      9419      9418      9420
      9418      9421      9421      9422      9421      9423      9421      9424
      9424      9425      9424      9426      9424      9427      9427      9428
      9427      9429      9427      9430      9430      9431      9430      9432
      9430      9433      9433      9434      9433      9435      9433      9436
      9436      9437      9436      9438      9436      9439      9439      9440
      9439      9441      9439      9442      9442      9443      9442      9444
      9442      9445      9445      9446      9445      9447      9445      9448
      9449      9453      9449      9457      9449      9461      9453      9454
      9453      9455      9453      9456      9457      9458      9457      9459
      9457      9460      9461      9462      9461      9463      9461      9464
      9449      9450      9450      9451      9450      9452      9450      9465
      9465      9466      9465      9467      9465      9471      9472      9473
      9471      9468      9468      9472      9468      9469      9468      9470
      9473      9474      9473      9475      9473      9476      9476      9477
      9476      9484      9476      9478      9484      9485      9484      9486
      9484      9487      9478      9479      9479      9481      9479      9480
      9481      9482      9481      9483      9481      9493      9493      9494
      9493      9495      9493      9496      9496      9497      9496      9498
      9496      9499      9499      9500      9499      9501      9499      9502
      9502      9503      9502      9504      9502      9505      9505      9506
      9505      9507      9505      9508      9508      9509      9508      9510
      9508      9511      9511      9512      9511      9513      9513      9514
      9513      9515      9515      9516      9515      9517      9515      9518
      9518      9519      9518      9520      9518      9521      9521      9522
      9521      9523      9521      9524      9524      9525      9524      9526
      9524      9527      9527      9528      9527      9529      9527      9530
      9530      9531      9530      9532      9530      9533      9533      9534
      9533      9535      9533      9536      9536      9537      9536      9538
      9536      9539      9487      9488      9488      9490      9488      9489
      9490      9491      9490      9492      9490      9540      9540      9541
      9540      9542      9540      9543      9543      9544      9543      9545
      9543      9546      9546      9547      9546      9548      9546      9549
      9549      9550      9549      9551      9549      9552      9552      9553
      9552      9554      9552      9555      9555      9556      9555      9557
      9555      9558      9558      9559      9558      9560      9558      9561
      9561      9562      9561      9563      9561      9564      9564      9565
      9564      9566      9564      9567      9567      9568      9567      9569
      9567      9570      9570      9571      9570      9572      9570      9573
      9573      9574      9573      9575      9573      9576      9576      9577
      9576      9578      9576      9579      9579      9580      9579      9581
      9579      9582      9583      9587      9583      9591      9583      9595
      9587      9588      9587      9589      9587      9590      9591      9592
      9591      9593      9591      9594      9595      9596      9595      9597
      9595      9598      9583      9584      9584      9585      9584      9586
      9584      9599      9599      9600      9599      9601      9599      9605
      9606      9607      9605      9602      9602      9606      9602      9603
      9602      9604      9607      9608      9607      9609      9607      9610
      9610      9611      9610      9618      9610      9612      9618      9619
      9618      9620      9618      9621      9612      9613      9613      9615
      9613      9614      9615      9616      9615      9617      9615      9627
      9627      9628      9627      9629      9627      9630      9630      9631
      9630      9632      9630      9633      9633      9634      9633      9635
      9633      9636      9636      9637      9636      9638      9636      9639
      9639      9640      9639      9641      9639      9642      9642      9643
      9642      9644      9642      9645      9645      9646      9645      9647
      9647      9648      9647      9649      9649      9650      9649      9651
      9649      9652      9652      9653      9652      9654      9652      9655
      9655      9656      9655      9657      9655      9658      9658      9659
      9658      9660      9658      9661      9661      9662      9661      9663
      9661      9664      9664      9665      9664      9666      9664      9667
      9667      9668      9667      9669      9667      9670      9670      9671
      9670      9672      9670      9673      9621      9622      9622      9624
      9622      9623      9624      9625      9624      9626      9624      9674
      9674      9675      9674      9676      9674      9677      9677      9678
      9677      9679      9677      9680      9680      9681      9680      9682
      9680      9683      9683      9684      9683      9685      9683      9686
      9686      9687      9686      9688      9686      9689      9689      9690
      9689      9691      9689      9692      9692      9693      9692      9694
      9692      9695      9695      9696      9695      9697      9695      9698
      9698      9699      9698      9700      9698      9701      9701      9702
      9701      9703      9701      9704      9704      9705      9704      9706
      9704      9707      9707      9708      9707      9709      9707      9710
      9710      9711      9710      9712      9710      9713      9713      9714
      9713      9715      9713      9716      9717      9721      9717      9725
      9717      9729      9721      9722      9721      9723      9721      9724
      9725      9726      9725      9727      9725      9728      9729      9730
      9729      9731      9729      9732      9717      9718      9718      9719
      9718      9720      9718      9733      9733      9734      9733      9735
      9733      9739      9740      9741      9739      9736      9736      9740
      9736      9737      9736      9738      9741      9742      9741      9743
      9741      9744      9744      9745      9744      9752      9744      9746
      9752      9753      9752      9754      9752      9755      9746      9747
      9747      9749      9747      9748      9749      9750      9749      9751
      9749      9761      9761      9762      9761      9763      9761      9764
      9764      9765      9764      9766      9764      9767      9767      9768
      9767      9769      9767      9770      9770      9771      9770      9772
      9770      9773      9773      9774      9773      9775      9773      9776
      9776      9777      9776      9778      9776      9779      9779      9780
      9779      9781      9781      9782      9781      9783      9783      9784
      9783      9785      9783      9786      9786      9787      9786      9788
      9786      9789      9789      9790      9789      9791      9789      9792
      9792      9793      9792      9794      9792      9795      9795      9796
      9795      9797      9795      9798      9798      9799      9798      9800
      9798      9801      9801      9802      9801      9803      9801      9804
      9804      9805      9804      9806      9804      9807      9755      9756
      9756      9758      9756      9757      9758      9759      9758      9760
      9758      9808      9808      9809      9808      9810      9808      9811
      9811      9812      9811      9813      9811      9814      9814      9815
      9814      9816      9814      9817      9817      9818      9817      9819
      9817      9820      9820      9821      9820      9822      9820      9823
      9823      9824      9823      9825      9823      9826      9826      9827
      9826      9828      9826      9829      9829      9830      9829      9831
      9829      9832      9832      9833      9832      9834      9832      9835
      9835      9836      9835      9837      9835      9838      9838      9839
      9838      9840      9838      9841      9841      9842      9841      9843
      9841      9844      9844      9845      9844      9846      9844      9847
      9847      9848      9847      9849      9847      9850      9851      9855
      9851      9859      9851      9863      9855      9856      9855      9857
      9855      9858      9859      9860      9859      9861      9859      9862
      9863      9864      9863      9865      9863      9866      9851      9852
      9852      9853      9852      9854      9852      9867      9867      9868
      9867      9869      9867      9873      9874      9875      9873      9870
      9870      9874      9870      9871      9870      9872      9875      9876
      9875      9877      9875      9878      9878      9879      9878      9886
      9878      9880      9886      9887      9886      9888      9886      9889
      9880      9881      9881      9883      9881      9882      9883      9884
      9883      9885      9883      9895      9895      9896      9895      9897
      9895      9898      9898      9899      9898      9900      9898      9901
      9901      9902      9901      9903      9901      9904      9904      9905
      9904      9906      9904      9907      9907      9908      9907      9909
      9907      9910      9910      9911      9910      9912      9910      9913
      9913      9914      9913      9915      9915      9916      9915      9917
      9917      9918      9917      9919      9917      9920      9920      9921
      9920      9922      9920      9923      9923      9924      9923      9925
      9923      9926      9926      9927      9926      9928      9926      9929
      9929      9930      9929      9931      9929      9932      9932      9933
      9932      9934      9932      9935      9935      9936      9935      9937
      9935      9938      9938      9939      9938      9940      9938      9941
      9889      9890      9890      9892      9890      9891      9892      9893
      9892      9894      9892      9942      9942      9943      9942      9944
      9942      9945      9945      9946      9945      9947      9945      9948
      9948      9949      9948      9950      9948      9951      9951      9952
      9951      9953      9951      9954      9954      9955      9954      9956
      9954      9957      9957      9958      9957      9959      9957      9960
      9960      9961      9960      9962      9960      9963      9963      9964
      9963      9965      9963      9966      9966      9967      9966      9968
      9966      9969      9969      9970      9969      9971      9969      9972
      9972      9973      9972      9974      9972      9975      9975      9976
      9975      9977      9975      9978      9978      9979      9978      9980
      9978      9981      9981      9982      9981      9983      9981      9984
      9985      9989      9985      9993      9985      9997      9989      9990
      9989      9991      9989      9992      9993      9994      9993      9995
      9993      9996      9997      9998      9997      9999      9997     10000
      9985      9986      9986      9987      9986      9988      9986     10001
     10001     10002     10001     10003     10001     10007     10008     10009
     10007     10004     10004     10008     10004     10005     10004     10006
     10009     10010     10009     10011     10009     10012     10012     10013
     10012     10020     10012     10014     10020     10021     10020     10022
     10020     10023     10014     10015     10015     10017     10015     10016
     10017     10018     10017     10019     10017     10029     10029     10030
     10029     10031     10029     10032     10032     10033     10032     10034
     10032     10035     10035     10036     10035     10037     10035     10038
     10038     10039     10038     10040     10038     10041     10041     10042
     10041     10043     10041     10044     10044     10045     10044     10046
     10044     10047     10047     10048     10047     10049     10049     10050
     10049     10051     10051     10052     10051     10053     10051     10054
     10054     10055     10054     10056     10054     10057     10057     10058
     10057     10059     10057     10060     10060     10061     10060     10062
     10060     10063     10063     10064     10063     10065     10063     10066
     10066     10067     10066     10068     10066     10069     10069     10070
     10069     10071     10069     10072     10072     10073     10072     10074
     10072     10075     10023     10024     10024     10026     10024     10025
     10026     10027     10026     10028     10026     10076     10076     10077
     10076     10078     10076     10079     10079     10080     10079     10081
     10079     10082     10082     10083     10082     10084     10082     10085
     10085     10086     10085     10087     10085     10088     10088     10089
     10088     10090     10088     10091     10091     10092     10091     10093
     10091     10094     10094     10095     10094     10096     10094     10097
     10097     10098     10097     10099     10097     10100     10100     10101
     10100     10102     10100     10103     10103     10104     10103     10105
     10103     10106     10106     10107     10106     10108     10106     10109
     10109     10110     10109     10111     10109     10112     10112     10113
     10112     10114     10112     10115     10115     10116     10115     10117
     10115     10118     10119     10123     10119     10127     10119     10131
     10123     10124     10123     10125     10123     10126     10127     10128
     10127     10129     10127     10130     10131     10132     10131     10133
     10131     10134     10119     10120     10120     10121     10120     10122
     10120     10135     10135     10136     10135     10137     10135     10141
     10142     10143     10141     10138     10138     10142     10138     10139
     10138     10140     10143     10144     10143     10145     10143     10146
     10146     10147     10146     10154     10146     10148     10154     10155
     10154     10156     10154     10157     10148     10149     10149     10151
     10149     10150     10151     10152     10151     10153     10151     10163
     10163     10164     10163     10165     10163     10166     10166     10167
     10166     10168     10166     10169     10169     10170     10169     10171
     10169     10172     10172     10173     10172     10174     10172     10175
     10175     10176     10175     10177     10175     10178     10178     10179
     10178     10180     10178     10181     10181     10182     10181     10183
     10183     10184     10183     10185     10185     10186     10185     10187
     10185     10188     10188     10189     10188     10190     10188     10191
     10191     10192     10191     10193     10191     10194     10194     10195
     10194     10196     10194     10197     10197     10198     10197     10199
     10197     10200     10200     10201     10200     10202     10200     10203
     10203     10204     10203     10205     10203     10206     10206     10207
     10206     10208     10206     10209     10157     10158     10158     10160
     10158     10159     10160     10161     10160     10162     10160     10210
     10210     10211     10210     10212     10210     10213     10213     10214
     10213     10215     10213     10216     10216     10217     10216     10218
     10216     10219     10219     10220     10219     10221     10219     10222
     10222     10223     10222     10224     10222     10225     10225     10226
     10225     10227     10225     10228     10228     10229     10228     10230
     10228     10231     10231     10232     10231     10233     10231     10234
     10234     10235     10234     10236     10234     10237     10237     10238
     10237     10239     10237     10240     10240     10241     10240     10242
     10240     10243     10243     10244     10243     10245     10243     10246
     10246     10247     10246     10248     10246     10249     10249     10250
     10249     10251     10249     10252     10253     10257     10253     10261
     10253     10265     10257     10258     10257     10259     10257     10260
     10261     10262     10261     10263     10261     10264     10265     10266
     10265     10267     10265     10268     10253     10254     10254     10255
     10254     10256     10254     10269     10269     10270     10269     10271
     10269     10275     10276     10277     10275     10272     10272     10276
     10272     10273     10272     10274     10277     10278     10277     10279
     10277     10280     10280     10281     10280     10288     10280     10282
     10288     10289     10288     10290     10288     10291     10282     10283
     10283     10285     10283     10284     10285     10286     10285     10287
     10285     10297     10297     10298     10297     10299     10297     10300
     10300     10301     10300     10302     10300     10303     10303     10304
     10303     10305     10303     10306     10306     10307     10306     10308
     10306     10309     10309     10310     10309     10311     10309     10312
     10312     10313     10312     10314     10312     10315     10315     10316
     10315     10317     10317     10318     10317     10319     10319     10320
     10319     10321     10319     10322     10322     10323     10322     10324
     10322     10325     10325     10326     10325     10327     10325     10328
     10328     10329     10328     10330     10328     10331     10331     10332
     10331     10333     10331     10334     10334     10335     10334     10336
     10334     10337     10337     10338     10337     10339     10337     10340
     10340     10341     10340     10342     10340     10343     10291     10292
     10292     10294     10292     10293     10294     10295     10294     10296
     10294     10344     10344     10345     10344     10346     10344     10347
     10347     10348     10347     10349     10347     10350     10350     10351
     10350     10352     10350     10353     10353     10354     10353     10355
     10353     10356     10356     10357     10356     10358     10356     10359
     10359     10360     10359     10361     10359     10362     10362     10363
     10362     10364     10362     10365     10365     10366     10365     10367
     10365     10368     10368     10369     10368     10370     10368     10371
     10371     10372     10371     10373     10371     10374     10374     10375
     10374     10376     10374     10377     10377     10378     10377     10379
     10377     10380     10380     10381     10380     10382     10380     10383
     10383     10384     10383     10385     10383     10386     10387     10391
     10387     10395     10387     10399     10391     10392     10391     10393
     10391     10394     10395     10396     10395     10397     10395     10398
     10399     10400     10399     10401     10399     10402     10387     10388
     10388     10389     10388     10390     10388     10403     10403     10404
     10403     10405     10403     10409     10410     10411     10409     10406
     10406     10410     10406     10407     10406     10408     10411     10412
     10411     10413     10411     10414     10414     10415     10414     10422
     10414     10416     10422     10423     10422     10424     10422     10425
     10416     10417     10417     10419     10417     10418     10419     10420
     10419     10421     10419     10431     10431     10432     10431     10433
     10431     10434     10434     10435     10434     10436     10434     10437
     10437     10438     10437     10439     10437     10440     10440     10441
     10440     10442     10440     10443     10443     10444     10443     10445
     10443     10446     10446     10447     10446     10448     10446     10449
     10449     10450     10449     10451     10451     10452     10451     10453
     10453     10454     10453     10455     10453     10456     10456     10457
     10456     10458     10456     10459     10459     10460     10459     10461
     10459     10462     10462     10463     10462     10464     10462     10465
     10465     10466     10465     10467     10465     10468     10468     10469
     10468     10470     10468     10471     10471     10472     10471     10473
     10471     10474     10474     10475     10474     10476     10474     10477
     10425     10426     10426     10428     10426     10427     10428     10429
     10428     10430     10428     10478     10478     10479     10478     10480
     10478     10481     10481     10482     10481     10483     10481     10484
     10484     10485     10484     10486     10484     10487     10487     10488
     10487     10489     10487     10490     10490     10491     10490     10492
     10490     10493     10493     10494     10493     10495     10493     10496
     10496     10497     10496     10498     10496     10499     10499     10500
     10499     10501     10499     10502     10502     10503     10502     10504
     10502     10505     10505     10506     10505     10507     10505     10508
     10508     10509     10508     10510     10508     10511     10511     10512
     10511     10513     10511     10514     10514     10515     10514     10516
     10514     10517     10517     10518     10517     10519     10517     10520
     10521     10525     10521     10529     10521     10533     10525     10526
     10525     10527     10525     10528     10529     10530     10529     10531
     10529     10532     10533     10534     10533     10535     10533     10536
     10521     10522     10522     10523     10522     10524     10522     10537
     10537     10538     10537     10539     10537     10543     10544     10545
     10543     10540     10540     10544     10540     10541     10540     10542
     10545     10546     10545     10547     10545     10548     10548     10549
     10548     10556     10548     10550     10556     10557     10556     10558
     10556     10559     10550     10551     10551     10553     10551     10552
     10553     10554     10553     10555     10553     10565     10565     10566
     10565     10567     10565     10568     10568     10569     10568     10570
     10568     10571     10571     10572     10571     10573     10571     10574
     10574     10575     10574     10576     10574     10577     10577     10578
     10577     10579     10577     10580     10580     10581     10580     10582
     10580     10583     10583     10584     10583     10585     10585     10586
     10585     10587     10587     10588     10587     10589     10587     10590
     10590     10591     10590     10592     10590     10593     10593     10594
     10593     10595     10593     10596     10596     10597     10596     10598
     10596     10599     10599     10600     10599     10601     10599     10602
     10602     10603     10602     10604     10602     10605     10605     10606
     10605     10607     10605     10608     10608     10609     10608     10610
     10608     10611     10559     10560     10560     10562     10560     10561
     10562     10563     10562     10564     10562     10612     10612     10613
     10612     10614     10612     10615     10615     10616     10615     10617
     10615     10618     10618     10619     10618     10620     10618     10621
     10621     10622     10621     10623     10621     10624     10624     10625
     10624     10626     10624     10627     10627     10628     10627     10629
     10627     10630     10630     10631     10630     10632     10630     10633
     10633     10634     10633     10635     10633     10636     10636     10637
     10636     10638     10636     10639     10639     10640     10639     10641
     10639     10642     10642     10643     10642     10644     10642     10645
     10645     10646     10645     10647     10645     10648     10648     10649
     10648     10650     10648     10651     10651     10652     10651     10653
     10651     10654     10655     10659     10655     10663     10655     10667
     10659     10660     10659     10661     10659     10662     10663     10664
     10663     10665     10663     10666     10667     10668     10667     10669
     10667     10670     10655     10656     10656     10657     10656     10658
     10656     10671     10671     10672     10671     10673     10671     10677
     10678     10679     10677     10674     10674     10678     10674     10675
     10674     10676     10679     10680     10679     10681     10679     10682
     10682     10683     10682     10690     10682     10684     10690     10691
     10690     10692     10690     10693     10684     10685     10685     10687
     10685     10686     10687     10688     10687     10689     10687     10699
     10699     10700     10699     10701     10699     10702     10702     10703
     10702     10704     10702     10705     10705     10706     10705     10707
     10705     10708     10708     10709     10708     10710     10708     10711
     10711     10712     10711     10713     10711     10714     10714     10715
     10714     10716     10714     10717     10717     10718     10717     10719
     10719     10720     10719     10721     10721     10722     10721     10723
     10721     10724     10724     10725     10724     10726     10724     10727
     10727     10728     10727     10729     10727     10730     10730     10731
     10730     10732     10730     10733     10733     10734     10733     10735
     10733     10736     10736     10737     10736     10738     10736     10739
     10739     10740     10739     10741     10739     10742     10742     10743
     10742     10744     10742     10745     10693     10694     10694     10696
     10694     10695     10696     10697     10696     10698     10696     10746
     10746     10747     10746     10748     10746     10749     10749     10750
     10749     10751     10749     10752     10752     10753     10752     10754
     10752     10755     10755     10756     10755     10757     10755     10758
     10758     10759     10758     10760     10758     10761     10761     10762
     10761     10763     10761     10764     10764     10765     10764     10766
     10764     10767     10767     10768     10767     10769     10767     10770
     10770     10771     10770     10772     10770     10773     10773     10774
     10773     10775     10773     10776     10776     10777     10776     10778
     10776     10779     10779     10780     10779     10781     10779     10782
     10782     10783     10782     10784     10782     10785     10785     10786
     10785     10787     10785     10788     10789     10793     10789     10797
     10789     10801     10793     10794     10793     10795     10793     10796
     10797     10798     10797     10799     10797     10800     10801     10802
     10801     10803     10801     10804     10789     10790     10790     10791
     10790     10792     10790     10805     10805     10806     10805     10807
     10805     10811     10812     10813     10811     10808     10808     10812
     10808     10809     10808     10810     10813     10814     10813     10815
     10813     10816     10816     10817     10816     10824     10816     10818
     10824     10825     10824     10826     10824     10827     10818     10819
     10819     10821     10819     10820     10821     10822     10821     10823
     10821     10833     10833     10834     10833     10835     10833     10836
     10836     10837     10836     10838     10836     10839     10839     10840
     10839     10841     10839     10842     10842     10843     10842     10844
     10842     10845     10845     10846     10845     10847     10845     10848
     10848     10849     10848     10850     10848     10851     10851     10852
     10851     10853     10853     10854     10853     10855     10855     10856
     10855     10857     10855     10858     10858     10859     10858     10860
     10858     10861     10861     10862     10861     10863     10861     10864
     10864     10865     10864     10866     10864     10867     10867     10868
     10867     10869     10867     10870     10870     10871     10870     10872
     10870     10873     10873     10874     10873     10875     10873     10876
     10876     10877     10876     10878     10876     10879     10827     10828
     10828     10830     10828     10829     10830     10831     10830     10832
     10830     10880     10880     10881     10880     10882     10880     10883
     10883     10884     10883     10885     10883     10886     10886     10887
     10886     10888     10886     10889     10889     10890     10889     10891
     10889     10892     10892     10893     10892     10894     10892     10895
     10895     10896     10895     10897     10895     10898     10898     10899
     10898     10900     10898     10901     10901     10902     10901     10903
     10901     10904     10904     10905     10904     10906     10904     10907
     10907     10908     10907     10909     10907     10910     10910     10911
     10910     10912     10910     10913     10913     10914     10913     10915
     10913     10916     10916     10917     10916     10918     10916     10919
     10919     10920     10919     10921     10919     10922     10923     10927
     10923     10931     10923     10935     10927     10928     10927     10929
     10927     10930     10931     10932     10931     10933     10931     10934
     10935     10936     10935     10937     10935     10938     10923     10924
     10924     10925     10924     10926     10924     10939     10939     10940
     10939     10941     10939     10945     10946     10947     10945     10942
     10942     10946     10942     10943     10942     10944     10947     10948
     10947     10949     10947     10950     10950     10951     10950     10958
     10950     10952     10958     10959     10958     10960     10958     10961
     10952     10953     10953     10955     10953     10954     10955     10956
     10955     10957     10955     10967     10967     10968     10967     10969
     10967     10970     10970     10971     10970     10972     10970     10973
     10973     10974     10973     10975     10973     10976     10976     10977
     10976     10978     10976     10979     10979     10980     10979     10981
     10979     10982     10982     10983     10982     10984     10982     10985
     10985     10986     10985     10987     10987     10988     10987     10989
     10989     10990     10989     10991     10989     10992     10992     10993
     10992     10994     10992     10995     10995     10996     10995     10997
     10995     10998     10998     10999     10998     11000     10998     11001
     11001     11002     11001     11003     11001     11004     11004     11005
     11004     11006     11004     11007     11007     11008     11007     11009
     11007     11010     11010     11011     11010     11012     11010     11013
     10961     10962     10962     10964     10962     10963     10964     10965
     10964     10966     10964     11014     11014     11015     11014     11016
     11014     11017     11017     11018     11017     11019     11017     11020
     11020     11021     11020     11022     11020     11023     11023     11024
     11023     11025     11023     11026     11026     11027     11026     11028
     11026     11029     11029     11030     11029     11031     11029     11032
     11032     11033     11032     11034     11032     11035     11035     11036
     11035     11037     11035     11038     11038     11039     11038     11040
     11038     11041     11041     11042     11041     11043     11041     11044
     11044     11045     11044     11046     11044     11047     11047     11048
     11047     11049     11047     11050     11050     11051     11050     11052
     11050     11053     11053     11054     11053     11055     11053     11056
     11057     11061     11057     11065     11057     11069     11061     11062
     11061     11063     11061     11064     11065     11066     11065     11067
     11065     11068     11069     11070     11069     11071     11069     11072
     11057     11058     11058     11059     11058     11060     11058     11073
     11073     11074     11073     11075     11073     11079     11080     11081
     11079     11076     11076     11080     11076     11077     11076     11078
     11081     11082     11081     11083     11081     11084     11084     11085
     11084     11092     11084     11086     11092     11093     11092     11094
     11092     11095     11086     11087     11087     11089     11087     11088
     11089     11090     11089     11091     11089     11101     11101     11102
     11101     11103     11101     11104     11104     11105     11104     11106
     11104     11107     11107     11108     11107     11109     11107     11110
     11110     11111     11110     11112     11110     11113     11113     11114
     11113     11115     11113     11116     11116     11117     11116     11118
     11116     11119     11119     11120     11119     11121     11121     11122
     11121     11123     11123     11124     11123     11125     11123     11126
     11126     11127     11126     11128     11126     11129     11129     11130
     11129     11131     11129     11132     11132     11133     11132     11134
     11132     11135     11135     11136     11135     11137     11135     11138
     11138     11139     11138     11140     11138     11141     11141     11142
     11141     11143     11141     11144     11144     11145     11144     11146
     11144     11147     11095     11096     11096     11098     11096     11097
     11098     11099     11098     11100     11098     11148     11148     11149
     11148     11150     11148     11151     11151     11152     11151     11153
     11151     11154     11154     11155     11154     11156     11154     11157
     11157     11158     11157     11159     11157     11160     11160     11161
     11160     11162     11160     11163     11163     11164     11163     11165
     11163     11166     11166     11167     11166     11168     11166     11169
     11169     11170     11169     11171     11169     11172     11172     11173
     11172     11174     11172     11175     11175     11176     11175     11177
     11175     11178     11178     11179     11178     11180     11178     11181
     11181     11182     11181     11183     11181     11184     11184     11185
     11184     11186     11184     11187     11187     11188     11187     11189
     11187     11190     11191     11195     11191     11199     11191     11203
     11195     11196     11195     11197     11195     11198     11199     11200
     11199     11201     11199     11202     11203     11204     11203     11205
     11203     11206     11191     11192     11192     11193     11192     11194
     11192     11207     11207     11208     11207     11209     11207     11213
     11214     11215     11213     11210     11210     11214     11210     11211
     11210     11212     11215     11216     11215     11217     11215     11218
     11218     11219     11218     11226     11218     11220     11226     11227
     11226     11228     11226     11229     11220     11221     11221     11223
     11221     11222     11223     11224     11223     11225     11223     11235
     11235     11236     11235     11237     11235     11238     11238     11239
     11238     11240     11238     11241     11241     11242     11241     11243
     11241     11244     11244     11245     11244     11246     11244     11247
     11247     11248     11247     11249     11247     11250     11250     11251
     11250     11252     11250     11253     11253     11254     11253     11255
     11255     11256     11255     11257     11257     11258     11257     11259
     11257     11260     11260     11261     11260     11262     11260     11263
     11263     11264     11263     11265     11263     11266     11266     11267
     11266     11268     11266     11269     11269     11270     11269     11271
     11269     11272     11272     11273     11272     11274     11272     11275
     11275     11276     11275     11277     11275     11278     11278     11279
     11278     11280     11278     11281     11229     11230     11230     11232
     11230     11231     11232     11233     11232     11234     11232     11282
     11282     11283     11282     11284     11282     11285     11285     11286
     11285     11287     11285     11288     11288     11289     11288     11290
     11288     11291     11291     11292     11291     11293     11291     11294
     11294     11295     11294     11296     11294     11297     11297     11298
     11297     11299     11297     11300     11300     11301     11300     11302
     11300     11303     11303     11304     11303     11305     11303     11306
     11306     11307     11306     11308     11306     11309     11309     11310
     11309     11311     11309     11312     11312     11313     11312     11314
     11312     11315     11315     11316     11315     11317     11315     11318
     11318     11319     11318     11320     11318     11321     11321     11322
     11321     11323     11321     11324     11325     11329     11325     11333
     11325     11337     11329     11330     11329     11331     11329     11332
     11333     11334     11333     11335     11333     11336     11337     11338
     11337     11339     11337     11340     11325     11326     11326     11327
     11326     11328     11326     11341     11341     11342     11341     11343
     11341     11347     11348     11349     11347     11344     11344     11348
     11344     11345     11344     11346     11349     11350     11349     11351
     11349     11352     11352     11353     11352     11360     11352     11354
     11360     11361     11360     11362     11360     11363     11354     11355
     11355     11357     11355     11356     11357     11358     11357     11359
     11357     11369     11369     11370     11369     11371     11369     11372
     11372     11373     11372     11374     11372     11375     11375     11376
     11375     11377     11375     11378     11378     11379     11378     11380
     11378     11381     11381     11382     11381     11383     11381     11384
     11384     11385     11384     11386     11384     11387     11387     11388
     11387     11389     11389     11390     11389     11391     11391     11392
     11391     11393     11391     11394     11394     11395     11394     11396
     11394     11397     11397     11398     11397     11399     11397     11400
     11400     11401     11400     11402     11400     11403     11403     11404
     11403     11405     11403     11406     11406     11407     11406     11408
     11406     11409     11409     11410     11409     11411     11409     11412
     11412     11413     11412     11414     11412     11415     11363     11364
     11364     11366     11364     11365     11366     11367     11366     11368
     11366     11416     11416     11417     11416     11418     11416     11419
     11419     11420     11419     11421     11419     11422     11422     11423
     11422     11424     11422     11425     11425     11426     11425     11427
     11425     11428     11428     11429     11428     11430     11428     11431
     11431     11432     11431     11433     11431     11434     11434     11435
     11434     11436     11434     11437     11437     11438     11437     11439
     11437     11440     11440     11441     11440     11442     11440     11443
     11443     11444     11443     11445     11443     11446     11446     11447
     11446     11448     11446     11449     11449     11450     11449     11451
     11449     11452     11452     11453     11452     11454     11452     11455
     11455     11456     11455     11457     11455     11458     11459     11463
     11459     11467     11459     11471     11463     11464     11463     11465
     11463     11466     11467     11468     11467     11469     11467     11470
     11471     11472     11471     11473     11471     11474     11459     11460
     11460     11461     11460     11462     11460     11475     11475     11476
     11475     11477     11475     11481     11482     11483     11481     11478
     11478     11482     11478     11479     11478     11480     11483     11484
     11483     11485     11483     11486     11486     11487     11486     11494
     11486     11488     11494     11495     11494     11496     11494     11497
     11488     11489     11489     11491     11489     11490     11491     11492
     11491     11493     11491     11503     11503     11504     11503     11505
     11503     11506     11506     11507     11506     11508     11506     11509
     11509     11510     11509     11511     11509     11512     11512     11513
     11512     11514     11512     11515     11515     11516     11515     11517
     11515     11518     11518     11519     11518     11520     11518     11521
     11521     11522     11521     11523     11523     11524     11523     11525
     11525     11526     11525     11527     11525     11528     11528     11529
     11528     11530     11528     11531     11531     11532     11531     11533
     11531     11534     11534     11535     11534     11536     11534     11537
     11537     11538     11537     11539     11537     11540     11540     11541
     11540     11542     11540     11543     11543     11544     11543     11545
     11543     11546     11546     11547     11546     11548     11546     11549
     11497     11498     11498     11500     11498     11499     11500     11501
     11500     11502     11500     11550     11550     11551     11550     11552
     11550     11553     11553     11554     11553     11555     11553     11556
     11556     11557     11556     11558     11556     11559     11559     11560
     11559     11561     11559     11562     11562     11563     11562     11564
     11562     11565     11565     11566     11565     11567     11565     11568
     11568     11569     11568     11570     11568     11571     11571     11572
     11571     11573     11571     11574     11574     11575     11574     11576
     11574     11577     11577     11578     11577     11579     11577     11580
     11580     11581     11580     11582     11580     11583     11583     11584
     11583     11585     11583     11586     11586     11587     11586     11588
     11586     11589     11589     11590     11589     11591     11589     11592
     11593     11597     11593     11601     11593     11605     11597     11598
     11597     11599     11597     11600     11601     11602     11601     11603
     11601     11604     11605     11606     11605     11607     11605     11608
     11593     11594     11594     11595     11594     11596     11594     11609
     11609     11610     11609     11611     11609     11615     11616     11617
     11615     11612     11612     11616     11612     11613     11612     11614
     11617     11618     11617     11619     11617     11620     11620     11621
     11620     11628     11620     11622     11628     11629     11628     11630
     11628     11631     11622     11623     11623     11625     11623     11624
     11625     11626     11625     11627     11625     11637     11637     11638
     11637     11639     11637     11640     11640     11641     11640     11642
     11640     11643     11643     11644     11643     11645     11643     11646
     11646     11647     11646     11648     11646     11649     11649     11650
     11649     11651     11649     11652     11652     11653     11652     11654
     11652     11655     11655     11656     11655     11657     11657     11658
     11657     11659     11659     11660     11659     11661     11659     11662
     11662     11663     11662     11664     11662     11665     11665     11666
     11665     11667     11665     11668     11668     11669     11668     11670
     11668     11671     11671     11672     11671     11673     11671     11674
     11674     11675     11674     11676     11674     11677     11677     11678
     11677     11679     11677     11680     11680     11681     11680     11682
     11680     11683     11631     11632     11632     11634     11632     11633
     11634     11635     11634     11636     11634     11684     11684     11685
     11684     11686     11684     11687     11687     11688     11687     11689
     11687     11690     11690     11691     11690     11692     11690     11693
     11693     11694     11693     11695     11693     11696     11696     11697
     11696     11698     11696     11699     11699     11700     11699     11701
     11699     11702     11702     11703     11702     11704     11702     11705
     11705     11706     11705     11707     11705     11708     11708     11709
     11708     11710     11708     11711     11711     11712     11711     11713
     11711     11714     11714     11715     11714     11716     11714     11717
     11717     11718     11717     11719     11717     11720     11720     11721
     11720     11722     11720     11723     11723     11724     11723     11725
     11723     11726     11727     11731     11727     11735     11727     11739
     11731     11732     11731     11733     11731     11734     11735     11736
     11735     11737     11735     11738     11739     11740     11739     11741
     11739     11742     11727     11728     11728     11729     11728     11730
     11728     11743     11743     11744     11743     11745     11743     11749
     11750     11751     11749     11746     11746     11750     11746     11747
     11746     11748     11751     11752     11751     11753     11751     11754
     11754     11755     11754     11762     11754     11756     11762     11763
     11762     11764     11762     11765     11756     11757     11757     11759
     11757     11758     11759     11760     11759     11761     11759     11771
     11771     11772     11771     11773     11771     11774     11774     11775
     11774     11776     11774     11777     11777     11778     11777     11779
     11777     11780     11780     11781     11780     11782     11780     11783
     11783     11784     11783     11785     11783     11786     11786     11787
     11786     11788     11786     11789     11789     11790     11789     11791
     11791     11792     11791     11793     11793     11794     11793     11795
     11793     11796     11796     11797     11796     11798     11796     11799
     11799     11800     11799     11801     11799     11802     11802     11803
     11802     11804     11802     11805     11805     11806     11805     11807
     11805     11808     11808     11809     11808     11810     11808     11811
     11811     11812     11811     11813     11811     11814     11814     11815
     11814     11816     11814     11817     11765     11766     11766     11768
     11766     11767     11768     11769     11768     11770     11768     11818
     11818     11819     11818     11820     11818     11821     11821     11822
     11821     11823     11821     11824     11824     11825     11824     11826
     11824     11827     11827     11828     11827     11829     11827     11830
     11830     11831     11830     11832     11830     11833     11833     11834
     11833     11835     11833     11836     11836     11837     11836     11838
     11836     11839     11839     11840     11839     11841     11839     11842
     11842     11843     11842     11844     11842     11845     11845     11846
     11845     11847     11845     11848     11848     11849     11848     11850
     11848     11851     11851     11852     11851     11853     11851     11854
     11854     11855     11854     11856     11854     11857     11857     11858
     11857     11859     11857     11860     11861     11865     11861     11869
     11861     11873     11865     11866     11865     11867     11865     11868
     11869     11870     11869     11871     11869     11872     11873     11874
     11873     11875     11873     11876     11861     11862     11862     11863
     11862     11864     11862     11877     11877     11878     11877     11879
     11877     11883     11884     11885     11883     11880     11880     11884
     11880     11881     11880     11882     11885     11886     11885     11887
     11885     11888     11888     11889     11888     11896     11888     11890
     11896     11897     11896     11898     11896     11899     11890     11891
     11891     11893     11891     11892     11893     11894     11893     11895
     11893     11905     11905     11906     11905     11907     11905     11908
     11908     11909     11908     11910     11908     11911     11911     11912
     11911     11913     11911     11914     11914     11915     11914     11916
     11914     11917     11917     11918     11917     11919     11917     11920
     11920     11921     11920     11922     11920     11923     11923     11924
     11923     11925     11925     11926     11925     11927     11927     11928
     11927     11929     11927     11930     11930     11931     11930     11932
     11930     11933     11933     11934     11933     11935     11933     11936
     11936     11937     11936     11938     11936     11939     11939     11940
     11939     11941     11939     11942     11942     11943     11942     11944
     11942     11945     11945     11946     11945     11947     11945     11948
     11948     11949     11948     11950     11948     11951     11899     11900
     11900     11902     11900     11901     11902     11903     11902     11904
     11902     11952     11952     11953     11952     11954     11952     11955
     11955     11956     11955     11957     11955     11958     11958     11959
     11958     11960     11958     11961     11961     11962     11961     11963
     11961     11964     11964     11965     11964     11966     11964     11967
     11967     11968     11967     11969     11967     11970     11970     11971
     11970     11972     11970     11973     11973     11974     11973     11975
     11973     11976     11976     11977     11976     11978     11976     11979
     11979     11980     11979     11981     11979     11982     11982     11983
     11982     11984     11982     11985     11985     11986     11985     11987
     11985     11988     11988     11989     11988     11990     11988     11991
     11991     11992     11991     11993     11991     11994     11995     11999
     11995     12003     11995     12007     11999     12000     11999     12001
     11999     12002     12003     12004     12003     12005     12003     12006
     12007     12008     12007     12009     12007     12010     11995     11996
     11996     11997     11996     11998     11996     12011     12011     12012
     12011     12013     12011     12017     12018     12019     12017     12014
     12014     12018     12014     12015     12014     12016     12019     12020
     12019     12021     12019     12022     12022     12023     12022     12030
     12022     12024     12030     12031     12030     12032     12030     12033
     12024     12025     12025     12027     12025     12026     12027     12028
     12027     12029     12027     12039     12039     12040     12039     12041
     12039     12042     12042     12043     12042     12044     12042     12045
     12045     12046     12045     12047     12045     12048     12048     12049
     12048     12050     12048     12051     12051     12052     12051     12053
     12051     12054     12054     12055     12054     12056     12054     12057
     12057     12058     12057     12059     12059     12060     12059     12061
     12061     12062     12061     12063     12061     12064     12064     12065
     12064     12066     12064     12067     12067     12068     12067     12069
     12067     12070     12070     12071     12070     12072     12070     12073
     12073     12074     12073     12075     12073     12076     12076     12077
     12076     12078     12076     12079     12079     12080     12079     12081
     12079     12082     12082     12083     12082     12084     12082     12085
     12033     12034     12034     12036     12034     12035     12036     12037
     12036     12038     12036     12086     12086     12087     12086     12088
     12086     12089     12089     12090     12089     12091     12089     12092
     12092     12093     12092     12094     12092     12095     12095     12096
     12095     12097     12095     12098     12098     12099     12098     12100
     12098     12101     12101     12102     12101     12103     12101     12104
     12104     12105     12104     12106     12104     12107     12107     12108
     12107     12109     12107     12110     12110     12111     12110     12112
     12110     12113     12113     12114     12113     12115     12113     12116
     12116     12117     12116     12118     12116     12119     12119     12120
     12119     12121     12119     12122     12122     12123     12122     12124
     12122     12125     12125     12126     12125     12127     12125     12128
     12129     12133     12129     12137     12129     12141     12133     12134
     12133     12135     12133     12136     12137     12138     12137     12139
     12137     12140     12141     12142     12141     12143     12141     12144
     12129     12130     12130     12131     12130     12132     12130     12145
     12145     12146     12145     12147     12145     12151     12152     12153
     12151     12148     12148     12152     12148     12149     12148     12150
     12153     12154     12153     12155     12153     12156     12156     12157
     12156     12164     12156     12158     12164     12165     12164     12166
     12164     12167     12158     12159     12159     12161     12159     12160
     12161     12162     12161     12163     12161     12173     12173     12174
     12173     12175     12173     12176     12176     12177     12176     12178
     12176     12179     12179     12180     12179     12181     12179     12182
     12182     12183     12182     12184     12182     12185     12185     12186
     12185     12187     12185     12188     12188     12189     12188     12190
     12188     12191     12191     12192     12191     12193     12193     12194
     12193     12195     12195     12196     12195     12197     12195     12198
     12198     12199     12198     12200     12198     12201     12201     12202
     12201     12203     12201     12204     12204     12205     12204     12206
     12204     12207     12207     12208     12207     12209     12207     12210
     12210     12211     12210     12212     12210     12213     12213     12214
     12213     12215     12213     12216     12216     12217     12216     12218
     12216     12219     12167     12168     12168     12170     12168     12169
     12170     12171     12170     12172     12170     12220     12220     12221
     12220     12222     12220     12223     12223     12224     12223     12225
     12223     12226     12226     12227     12226     12228     12226     12229
     12229     12230     12229     12231     12229     12232     12232     12233
     12232     12234     12232     12235     12235     12236     12235     12237
     12235     12238     12238     12239     12238     12240     12238     12241
     12241     12242     12241     12243     12241     12244     12244     12245
     12244     12246     12244     12247     12247     12248     12247     12249
     12247     12250     12250     12251     12250     12252     12250     12253
     12253     12254     12253     12255     12253     12256     12256     12257
     12256     12258     12256     12259     12259     12260     12259     12261
     12259     12262     12263     12267     12263     12271     12263     12275
     12267     12268     12267     12269     12267     12270     12271     12272
     12271     12273     12271     12274     12275     12276     12275     12277
     12275     12278     12263     12264     12264     12265     12264     12266
     12264     12279     12279     12280     12279     12281     12279     12285
     12286     12287     12285     12282     12282     12286     12282     12283
     12282     12284     12287     12288     12287     12289     12287     12290
     12290     12291     12290     12298     12290     12292     12298     12299
     12298     12300     12298     12301     12292     12293     12293     12295
     12293     12294     12295     12296     12295     12297     12295     12307
     12307     12308     12307     12309     12307     12310     12310     12311
     12310     12312     12310     12313     12313     12314     12313     12315
     12313     12316     12316     12317     12316     12318     12316     12319
     12319     12320     12319     12321     12319     12322     12322     12323
     12322     12324     12322     12325     12325     12326     12325     12327
     12327     12328     12327     12329     12329     12330     12329     12331
     12329     12332     12332     12333     12332     12334     12332     12335
     12335     12336     12335     12337     12335     12338     12338     12339
     12338     12340     12338     12341     12341     12342     12341     12343
     12341     12344     12344     12345     12344     12346     12344     12347
     12347     12348     12347     12349     12347     12350     12350     12351
     12350     12352     12350     12353     12301     12302     12302     12304
     12302     12303     12304     12305     12304     12306     12304     12354
     12354     12355     12354     12356     12354     12357     12357     12358
     12357     12359     12357     12360     12360     12361     12360     12362
     12360     12363     12363     12364     12363     12365     12363     12366
     12366     12367     12366     12368     12366     12369     12369     12370
     12369     12371     12369     12372     12372     12373     12372     12374
     12372     12375     12375     12376     12375     12377     12375     12378
     12378     12379     12378     12380     12378     12381     12381     12382
     12381     12383     12381     12384     12384     12385     12384     12386
     12384     12387     12387     12388     12387     12389     12387     12390
     12390     12391     12390     12392     12390     12393     12393     12394
     12393     12395     12393     12396     12397     12401     12397     12405
     12397     12409     12401     12402     12401     12403     12401     12404
     12405     12406     12405     12407     12405     12408     12409     12410
     12409     12411     12409     12412     12397     12398     12398     12399
     12398     12400     12398     12413     12413     12414     12413     12415
     12413     12419     12420     12421     12419     12416     12416     12420
     12416     12417     12416     12418     12421     12422     12421     12423
     12421     12424     12424     12425     12424     12432     12424     12426
     12432     12433     12432     12434     12432     12435     12426     12427
     12427     12429     12427     12428     12429     12430     12429     12431
     12429     12441     12441     12442     12441     12443     12441     12444
     12444     12445     12444     12446     12444     12447     12447     12448
     12447     12449     12447     12450     12450     12451     12450     12452
     12450     12453     12453     12454     12453     12455     12453     12456
     12456     12457     12456     12458     12456     12459     12459     12460
     12459     12461     12461     12462     12461     12463     12463     12464
     12463     12465     12463     12466     12466     12467     12466     12468
     12466     12469     12469     12470     12469     12471     12469     12472
     12472     12473     12472     12474     12472     12475     12475     12476
     12475     12477     12475     12478     12478     12479     12478     12480
     12478     12481     12481     12482     12481     12483     12481     12484
     12484     12485     12484     12486     12484     12487     12435     12436
     12436     12438     12436     12437     12438     12439     12438     12440
     12438     12488     12488     12489     12488     12490     12488     12491
     12491     12492     12491     12493     12491     12494     12494     12495
     12494     12496     12494     12497     12497     12498     12497     12499
     12497     12500     12500     12501     12500     12502     12500     12503
     12503     12504     12503     12505     12503     12506     12506     12507
     12506     12508     12506     12509     12509     12510     12509     12511
     12509     12512     12512     12513     12512     12514     12512     12515
     12515     12516     12515     12517     12515     12518     12518     12519
     12518     12520     12518     12521     12521     12522     12521     12523
     12521     12524     12524     12525     12524     12526     12524     12527
     12527     12528     12527     12529     12527     12530     12531     12535
     12531     12539     12531     12543     12535     12536     12535     12537
     12535     12538     12539     12540     12539     12541     12539     12542
     12543     12544     12543     12545     12543     12546     12531     12532
     12532     12533     12532     12534     12532     12547     12547     12548
     12547     12549     12547     12553     12554     12555     12553     12550
     12550     12554     12550     12551     12550     12552     12555     12556
     12555     12557     12555     12558     12558     12559     12558     12566
     12558     12560     12566     12567     12566     12568     12566     12569
     12560     12561     12561     12563     12561     12562     12563     12564
     12563     12565     12563     12575     12575     12576     12575     12577
     12575     12578     12578     12579     12578     12580     12578     12581
     12581     12582     12581     12583     12581     12584     12584     12585
     12584     12586     12584     12587     12587     12588     12587     12589
     12587     12590     12590     12591     12590     12592     12590     12593
     12593     12594     12593     12595     12595     12596     12595     12597
     12597     12598     12597     12599     12597     12600     12600     12601
     12600     12602     12600     12603     12603     12604     12603     12605
     12603     12606     12606     12607     12606     12608     12606     12609
     12609     12610     12609     12611     12609     12612     12612     12613
     12612     12614     12612     12615     12615     12616     12615     12617
     12615     12618     12618     12619     12618     12620     12618     12621
     12569     12570     12570     12572     12570     12571     12572     12573
     12572     12574     12572     12622     12622     12623     12622     12624
     12622     12625     12625     12626     12625     12627     12625     12628
     12628     12629     12628     12630     12628     12631     12631     12632
     12631     12633     12631     12634     12634     12635     12634     12636
     12634     12637     12637     12638     12637     12639     12637     12640
     12640     12641     12640     12642     12640     12643     12643     12644
     12643     12645     12643     12646     12646     12647     12646     12648
     12646     12649     12649     12650     12649     12651     12649     12652
     12652     12653     12652     12654     12652     12655     12655     12656
     12655     12657     12655     12658     12658     12659     12658     12660
     12658     12661     12661     12662     12661     12663     12661     12664
     12665     12669     12665     12673     12665     12677     12669     12670
     12669     12671     12669     12672     12673     12674     12673     12675
     12673     12676     12677     12678     12677     12679     12677     12680
     12665     12666     12666     12667     12666     12668     12666     12681
     12681     12682     12681     12683     12681     12687     12688     12689
     12687     12684     12684     12688     12684     12685     12684     12686
     12689     12690     12689     12691     12689     12692     12692     12693
     12692     12700     12692     12694     12700     12701     12700     12702
     12700     12703     12694     12695     12695     12697     12695     12696
     12697     12698     12697     12699     12697     12709     12709     12710
     12709     12711     12709     12712     12712     12713     12712     12714
     12712     12715     12715     12716     12715     12717     12715     12718
     12718     12719     12718     12720     12718     12721     12721     12722
     12721     12723     12721     12724     12724     12725     12724     12726
     12724     12727     12727     12728     12727     12729     12729     12730
     12729     12731     12731     12732     12731     12733     12731     12734
     12734     12735     12734     12736     12734     12737     12737     12738
     12737     12739     12737     12740     12740     12741     12740     12742
     12740     12743     12743     12744     12743     12745     12743     12746
     12746     12747     12746     12748     12746     12749     12749     12750
     12749     12751     12749     12752     12752     12753     12752     12754
     12752     12755     12703     12704     12704     12706     12704     12705
     12706     12707     12706     12708     12706     12756     12756     12757
     12756     12758     12756     12759     12759     12760     12759     12761
     12759     12762     12762     12763     12762     12764     12762     12765
     12765     12766     12765     12767     12765     12768     12768     12769
     12768     12770     12768     12771     12771     12772     12771     12773
     12771     12774     12774     12775     12774     12776     12774     12777
     12777     12778     12777     12779     12777     12780     12780     12781
     12780     12782     12780     12783     12783     12784     12783     12785
     12783     12786     12786     12787     12786     12788     12786     12789
     12789     12790     12789     12791     12789     12792     12792     12793
     12792     12794     12792     12795     12795     12796     12795     12797
     12795     12798     12799     12803     12799     12807     12799     12811
     12803     12804     12803     12805     12803     12806     12807     12808
     12807     12809     12807     12810     12811     12812     12811     12813
     12811     12814     12799     12800     12800     12801     12800     12802
     12800     12815     12815     12816     12815     12817     12815     12821
     12822     12823     12821     12818     12818     12822     12818     12819
     12818     12820     12823     12824     12823     12825     12823     12826
     12826     12827     12826     12834     12826     12828     12834     12835
     12834     12836     12834     12837     12828     12829     12829     12831
     12829     12830     12831     12832     12831     12833     12831     12843
     12843     12844     12843     12845     12843     12846     12846     12847
     12846     12848     12846     12849     12849     12850     12849     12851
     12849     12852     12852     12853     12852     12854     12852     12855
     12855     12856     12855     12857     12855     12858     12858     12859
     12858     12860     12858     12861     12861     12862     12861     12863
     12863     12864     12863     12865     12865     12866     12865     12867
     12865     12868     12868     12869     12868     12870     12868     12871
     12871     12872     12871     12873     12871     12874     12874     12875
     12874     12876     12874     12877     12877     12878     12877     12879
     12877     12880     12880     12881     12880     12882     12880     12883
     12883     12884     12883     12885     12883     12886     12886     12887
     12886     12888     12886     12889     12837     12838     12838     12840
     12838     12839     12840     12841     12840     12842     12840     12890
     12890     12891     12890     12892     12890     12893     12893     12894
     12893     12895     12893     12896     12896     12897     12896     12898
     12896     12899     12899     12900     12899     12901     12899     12902
     12902     12903     12902     12904     12902     12905     12905     12906
     12905     12907     12905     12908     12908     12909     12908     12910
     12908     12911     12911     12912     12911     12913     12911     12914
     12914     12915     12914     12916     12914     12917     12917     12918
     12917     12919     12917     12920     12920     12921     12920     12922
     12920     12923     12923     12924     12923     12925     12923     12926
     12926     12927     12926     12928     12926     12929     12929     12930
     12929     12931     12929     12932     12933     12937     12933     12941
     12933     12945     12937     12938     12937     12939     12937     12940
     12941     12942     12941     12943     12941     12944     12945     12946
     12945     12947     12945     12948     12933     12934     12934     12935
     12934     12936     12934     12949     12949     12950     12949     12951
     12949     12955     12956     12957     12955     12952     12952     12956
     12952     12953     12952     12954     12957     12958     12957     12959
     12957     12960     12960     12961     12960     12968     12960     12962
     12968     12969     12968     12970     12968     12971     12962     12963
     12963     12965     12963     12964     12965     12966     12965     12967
     12965     12977     12977     12978     12977     12979     12977     12980
     12980     12981     12980     12982     12980     12983     12983     12984
     12983     12985     12983     12986     12986     12987     12986     12988
     12986     12989     12989     12990     12989     12991     12989     12992
     12992     12993     12992     12994     12992     12995     12995     12996
     12995     12997     12997     12998     12997     12999     12999     13000
     12999     13001     12999     13002     13002     13003     13002     13004
     13002     13005     13005     13006     13005     13007     13005     13008
     13008     13009     13008     13010     13008     13011     13011     13012
     13011     13013     13011     13014     13014     13015     13014     13016
     13014     13017     13017     13018     13017     13019     13017     13020
     13020     13021     13020     13022     13020     13023     12971     12972
     12972     12974     12972     12973     12974     12975     12974     12976
     12974     13024     13024     13025     13024     13026     13024     13027
     13027     13028     13027     13029     13027     13030     13030     13031
     13030     13032     13030     13033     13033     13034     13033     13035
     13033     13036     13036     13037     13036     13038     13036     13039
     13039     13040     13039     13041     13039     13042     13042     13043
     13042     13044     13042     13045     13045     13046     13045     13047
     13045     13048     13048     13049     13048     13050     13048     13051
     13051     13052     13051     13053     13051     13054     13054     13055
     13054     13056     13054     13057     13057     13058     13057     13059
     13057     13060     13060     13061     13060     13062     13060     13063
     13063     13064     13063     13065     13063     13066     13067     13071
     13067     13075     13067     13079     13071     13072     13071     13073
     13071     13074     13075     13076     13075     13077     13075     13078
     13079     13080     13079     13081     13079     13082     13067     13068
     13068     13069     13068     13070     13068     13083     13083     13084
     13083     13085     13083     13089     13090     13091     13089     13086
     13086     13090     13086     13087     13086     13088     13091     13092
     13091     13093     13091     13094     13094     13095     13094     13102
     13094     13096     13102     13103     13102     13104     13102     13105
     13096     13097     13097     13099     13097     13098     13099     13100
     13099     13101     13099     13111     13111     13112     13111     13113
     13111     13114     13114     13115     13114     13116     13114     13117
     13117     13118     13117     13119     13117     13120     13120     13121
     13120     13122     13120     13123     13123     13124     13123     13125
     13123     13126     13126     13127     13126     13128     13126     13129
     13129     13130     13129     13131     13131     13132     13131     13133
     13133     13134     13133     13135     13133     13136     13136     13137
     13136     13138     13136     13139     13139     13140     13139     13141
     13139     13142     13142     13143     13142     13144     13142     13145
     13145     13146     13145     13147     13145     13148     13148     13149
     13148     13150     13148     13151     13151     13152     13151     13153
     13151     13154     13154     13155     13154     13156     13154     13157
     13105     13106     13106     13108     13106     13107     13108     13109
     13108     13110     13108     13158     13158     13159     13158     13160
     13158     13161     13161     13162     13161     13163     13161     13164
     13164     13165     13164     13166     13164     13167     13167     13168
     13167     13169     13167     13170     13170     13171     13170     13172
     13170     13173     13173     13174     13173     13175     13173     13176
     13176     13177     13176     13178     13176     13179     13179     13180
     13179     13181     13179     13182     13182     13183     13182     13184
     13182     13185     13185     13186     13185     13187     13185     13188
     13188     13189     13188     13190     13188     13191     13191     13192
     13191     13193     13191     13194     13194     13195     13194     13196
     13194     13197     13197     13198     13197     13199     13197     13200
     13201     13205     13201     13209     13201     13213     13205     13206
     13205     13207     13205     13208     13209     13210     13209     13211
     13209     13212     13213     13214     13213     13215     13213     13216
     13201     13202     13202     13203     13202     13204     13202     13217
     13217     13218     13217     13219     13217     13223     13224     13225
     13223     13220     13220     13224     13220     13221     13220     13222
     13225     13226     13225     13227     13225     13228     13228     13229
     13228     13236     13228     13230     13236     13237     13236     13238
     13236     13239     13230     13231     13231     13233     13231     13232
     13233     13234     13233     13235     13233     13245     13245     13246
     13245     13247     13245     13248     13248     13249     13248     13250
     13248     13251     13251     13252     13251     13253     13251     13254
     13254     13255     13254     13256     13254     13257     13257     13258
     13257     13259     13257     13260     13260     13261     13260     13262
     13260     13263     13263     13264     13263     13265     13265     13266
     13265     13267     13267     13268     13267     13269     13267     13270
     13270     13271     13270     13272     13270     13273     13273     13274
     13273     13275     13273     13276     13276     13277     13276     13278
     13276     13279     13279     13280     13279     13281     13279     13282
     13282     13283     13282     13284     13282     13285     13285     13286
     13285     13287     13285     13288     13288     13289     13288     13290
     13288     13291     13239     13240     13240     13242     13240     13241
     13242     13243     13242     13244     13242     13292     13292     13293
     13292     13294     13292     13295     13295     13296     13295     13297
     13295     13298     13298     13299     13298     13300     13298     13301
     13301     13302     13301     13303     13301     13304     13304     13305
     13304     13306     13304     13307     13307     13308     13307     13309
     13307     13310     13310     13311     13310     13312     13310     13313
     13313     13314     13313     13315     13313     13316     13316     13317
     13316     13318     13316     13319     13319     13320     13319     13321
     13319     13322     13322     13323     13322     13324     13322     13325
     13325     13326     13325     13327     13325     13328     13328     13329
     13328     13330     13328     13331     13331     13332     13331     13333
     13331     13334     13335     13339     13335     13343     13335     13347
     13339     13340     13339     13341     13339     13342     13343     13344
     13343     13345     13343     13346     13347     13348     13347     13349
     13347     13350     13335     13336     13336     13337     13336     13338
     13336     13351     13351     13352     13351     13353     13351     13357
     13358     13359     13357     13354     13354     13358     13354     13355
     13354     13356     13359     13360     13359     13361     13359     13362
     13362     13363     13362     13370     13362     13364     13370     13371
     13370     13372     13370     13373     13364     13365     13365     13367
     13365     13366     13367     13368     13367     13369     13367     13379
     13379     13380     13379     13381     13379     13382     13382     13383
     13382     13384     13382     13385     13385     13386     13385     13387
     13385     13388     13388     13389     13388     13390     13388     13391
     13391     13392     13391     13393     13391     13394     13394     13395
     13394     13396     13394     13397     13397     13398     13397     13399
     13399     13400     13399     13401     13401     13402     13401     13403
     13401     13404     13404     13405     13404     13406     13404     13407
     13407     13408     13407     13409     13407     13410     13410     13411
     13410     13412     13410     13413     13413     13414     13413     13415
     13413     13416     13416     13417     13416     13418     13416     13419
     13419     13420     13419     13421     13419     13422     13422     13423
     13422     13424     13422     13425     13373     13374     13374     13376
     13374     13375     13376     13377     13376     13378     13376     13426
     13426     13427     13426     13428     13426     13429     13429     13430
     13429     13431     13429     13432     13432     13433     13432     13434
     13432     13435     13435     13436     13435     13437     13435     13438
     13438     13439     13438     13440     13438     13441     13441     13442
     13441     13443     13441     13444     13444     13445     13444     13446
     13444     13447     13447     13448     13447     13449     13447     13450
     13450     13451     13450     13452     13450     13453     13453     13454
     13453     13455     13453     13456     13456     13457     13456     13458
     13456     13459     13459     13460     13459     13461     13459     13462
     13462     13463     13462     13464     13462     13465     13465     13466
     13465     13467     13465     13468

     25672 !NTHETA: angles
         2         1         3         2         1         4         2         1         5
         3         1         4         3         1         5         4         1         5
         1         5         6         1         5         7         1         5         8
         6         5         7         6         5         8         7         5         8
         5         8         9         5         8        10         9         8        10
         8        10        11         8        10        12        11        10        12
        10        12        13        10        12        14        10        12        27
        13        12        14        13        12        27        14        12        27
        12        14        15        12        14        16        12        14        20
        15        14        16        15        14        20        16        14        20
        14        16        17        14        16        18        14        16        19
        17        16        18        17        16        19        18        16        19
        14        20        21        14        20        22        14        20        23
        21        20        22        21        20        23        22        20        23
        20        23        24        20        23        25        20        23        26
        24        23        25        24        23        26        25        23        26
        12        27        28        12        27        29        28        27        29
        27        29        30        27        29        31        30        29        31
        29        31        32        29        31        33        29        31        34
        32        31        33        32        31        34        33        31        34
        31        34        35        31        34        36        35        34        36
        34        36        37        34        36        38        37        36        38
        36        38        39        36        38        40        36        38        44
        39        38        40        39        38        44        40        38        44
        38        40        41        38        40        42        38        40        43
        41        40        42        41        40        43        42        40        43
        38        44        45        38        44        46        45        44        46
        44        46        47        44        46        48        47        46        48
        46        48        49        46        48        50        46        48        60
        49        48        50        49        48        60        50        48        60
        48        50        51        48        50        52        48        50        56
        51        50        52        51        50        56        52        50        56
        50        52        53        50        52        54        50        52        55
        53        52        54        53        52        55        54        52        55
        50        56        57        50        56        58        50        56        59
        57        56        58        57        56        59        58        56        59
        48        60        61        48        60        62        61        60        62
        60        62        63        60        62        64        63        62        64
        62        64        65        62        64        66        62        64        79
        65        64        66        65        64        79        66        64        79
        64        66        67        64        66        68        64        66        69
        67        66        68        67        66        69        68        66        69
        66        69        70        66        69        71        66        69        75
        70        69        71        70        69        75        71        69        75
        69        71        72        69        71        73        69        71        74
        72        71        73        72        71        74        73        71        74
        69        75        76        69        75        77        69        75        78
        76        75        77        76        75        78        77        75        78
        64        79        80        64        79        81        80        79        81
        79        81        82        79        81        83        82        81        83
        81        83        84        81        83        85        81        83       101
        84        83        85        84        83       101        85        83       101
        83        85        86        83        85        87        83        85        88
        86        85        87        86        85        88        87        85        88
        85        88        89        85        88        90        85        88        91
        89        88        90        89        88        91        90        88        91
        88        91        92        88        91        93        88        91        94
        92        91        93        92        91        94        93        91        94
        91        94        95        91        94        96        91        94        97
        95        94        96        95        94        97        96        94        97
        94        97        98        94        97        99        94        97       100
        98        97        99        98        97       100        99        97       100
        83       101       102        83       101       103       102       101       103
       101       103       104       101       103       105       104       103       105
       103       105       106       103       105       107       103       105       117
       106       105       107       106       105       117       107       105       117
       105       107       108       105       107       109       105       107       113
       108       107       109       108       107       113       109       107       113
       107       109       110       107       109       111       107       109       112
       110       109       111       110       109       112       111       109       112
       107       113       114       107       113       115       107       113       116
       114       113       115       114       113       116       115       113       116
       105       117       118       105       117       119       118       117       119
       117       119       120       117       119       121       120       119       121
       119       121       122       119       121       123       119       121       136
       122       121       123       122       121       136       123       121       136
       121       123       124       121       123       125       121       123       126
       124       123       125       124       123       126       125       123       126
       123       126       127       123       126       128       123       126       132
       127       126       128       127       126       132       128       126       132
       126       128       129       126       128       130       126       128       131
       129       128       130       129       128       131       130       128       131
       126       132       133       126       132       134       126       132       135
       133       132       134       133       132       135       134       132       135
       121       136       137       121       136       138       137       136       138
       136       138       139       136       138       140       139       138       140
       138       140       141       138       140       142       138       140       150
       141       140       142       141       140       150       142       140       150
       140       142       143       140       142       144       140       142       146
       143       142       144       143       142       146       144       142       146
       142       144       145       142       146       147       142       146       148
       142       146       149       147       146       148       147       146       149
       148       146       149       140       150       151       140       150       152
       151       150       152       150       152       153       150       152       154
       153       152       154       152       154       155       152       154       156
       152       154       164       155       154       156       155       154       164
       156       154       164       154       156       157       154       156       158
       154       156       160       157       156       158       157       156       160
       158       156       160       156       158       159       156       160       161
       156       160       162       156       160       163       161       160       162
       161       160       163       162       160       163       154       164       165
       154       164       166       165       164       166       164       166       167
       164       166       168       167       166       168       166       168       169
       166       168       170       166       168       171       169       168       170
       169       168       171       170       168       171       168       171       172
       168       171       173       172       171       173       171       173       174
       171       173       175       174       173       175       173       175       176
       173       175       177       173       175       190       176       175       177
       176       175       190       177       175       190       175       177       178
       175       177       179       175       177       180       178       177       179
       178       177       180       179       177       180       177       180       181
       177       180       182       177       180       186       181       180       182
       181       180       186       182       180       186       180       182       183
       180       182       184       180       182       185       183       182       184
       183       182       185       184       182       185       180       186       187
       180       186       188       180       186       189       187       186       188
       187       186       189       188       186       189       175       190       191
       175       190       192       191       190       192       190       192       193
       190       192       196       193       192       196       192       193       194
       192       193       195       192       193       201       194       193       195
       194       193       201       195       193       201       192       196       197
       192       196       198       192       196       204       197       196       198
       197       196       204       198       196       204       196       198       199
       196       198       200       196       198       201       199       198       200
       199       198       201       200       198       201       193       201       198
       193       201       202       193       201       203       198       201       202
       198       201       203       202       201       203       196       204       205
       196       204       206       205       204       206       204       206       207
       204       206       208       207       206       208       206       208       209
       206       208       210       206       208       214       209       208       210
       209       208       214       210       208       214       208       210       211
       208       210       212       208       210       213       211       210       212
       211       210       213       212       210       213       208       214       215
       208       214       216       215       214       216       214       216       217
       214       216       218       217       216       218       216       218       219
       216       218       220       216       218       233       219       218       220
       219       218       233       220       218       233       218       220       221
       218       220       222       218       220       223       221       220       222
       221       220       223       222       220       223       220       223       224
       220       223       225       220       223       229       224       223       225
       224       223       229       225       223       229       223       225       226
       223       225       227       223       225       228       226       225       227
       226       225       228       227       225       228       223       229       230
       223       229       231       223       229       232       230       229       231
       230       229       232       231       229       232       218       233       234
       218       233       235       234       233       235       233       235       236
       233       235       237       236       235       237       235       237       238
       235       237       239       235       237       252       238       237       239
       238       237       252       239       237       252       237       239       240
       237       239       241       237       239       245       240       239       241
       240       239       245       241       239       245       239       241       242
       239       241       243       239       241       244       242       241       243
       242       241       244       243       241       244       239       245       246
       239       245       247       239       245       248       246       245       247
       246       245       248       247       245       248       245       248       249
       245       248       250       245       248       251       249       248       250
       249       248       251       250       248       251       237       252       253
       237       252       254       253       252       254       252       254       255
       252       254       256       255       254       256       254       256       257
       254       256       258       254       256       263       257       256       258
       257       256       263       258       256       263       256       258       259
       256       258       260       256       258       261       259       258       260
       259       258       261       260       258       261       258       261       262
       256       263       264       256       263       265       264       263       265
       263       265       266       263       265       267       266       265       267
       265       267       268       265       267       269       265       267       287
       268       267       269       268       267       287       269       267       287
       267       269       270       267       269       271       267       269       272
       270       269       271       270       269       272       271       269       272
       269       272       273       269       272       278       273       272       278
       272       273       274       272       273       275       274       273       275
       273       275       276       273       275       277       276       275       277
       275       277       278       275       277       283       278       277       283
       272       278       277       272       278       279       277       278       279
       278       279       280       278       279       281       280       279       281
       279       281       282       279       281       285       282       281       285
       277       283       284       277       283       285       284       283       285
       281       285       283       281       285       286       283       285       286
       267       287       288       267       287       289       288       287       289
       287       289       290       287       289       291       290       289       291
       289       291       292       289       291       293       289       291       306
       292       291       293       292       291       306       293       291       306
       291       293       294       291       293       295       291       293       299
       294       293       295       294       293       299       295       293       299
       293       295       296       293       295       297       293       295       298
       296       295       297       296       295       298       297       295       298
       293       299       300       293       299       301       293       299       302
       300       299       301       300       299       302       301       299       302
       299       302       303       299       302       304       299       302       305
       303       302       304       303       302       305       304       302       305
       291       306       307       291       306       308       307       306       308
       306       308       309       306       308       310       309       308       310
       308       310       311       308       310       312       308       310       328
       311       310       312       311       310       328       312       310       328
       310       312       313       310       312       314       310       312       315
       313       312       314       313       312       315       314       312       315
       312       315       316       312       315       317       312       315       318
       316       315       317       316       315       318       317       315       318
       315       318       319       315       318       320       315       318       321
       319       318       320       319       318       321       320       318       321
       318       321       322       318       321       323       318       321       324
       322       321       323       322       321       324       323       321       324
       321       324       325       321       324       326       321       324       327
       325       324       326       325       324       327       326       324       327
       310       328       329       310       328       330       329       328       330
       328       330       331       328       330       332       331       330       332
       330       332       333       330       332       334       330       332       352
       333       332       334       333       332       352       334       332       352
       332       334       335       332       334       336       332       334       337
       335       334       336       335       334       337       336       334       337
       334       337       338       334       337       339       334       337       340
       338       337       339       338       337       340       339       337       340
       337       340       341       337       340       342       337       340       343
       341       340       342       341       340       343       342       340       343
       340       343       344       340       343       345       344       343       345
       343       345       346       343       345       349       346       345       349
       345       346       347       345       346       348       347       346       348
       345       349       350       345       349       351       350       349       351
       332       352       353       332       352       354       353       352       354
       352       354       355       352       354       356       355       354       356
       354       356       357       354       356       358       354       356       374
       357       356       358       357       356       374       358       356       374
       356       358       359       356       358       360       356       358       361
       359       358       360       359       358       361       360       358       361
       358       361       362       358       361       363       358       361       364
       362       361       363       362       361       364       363       361       364
       361       364       365       361       364       366       361       364       367
       365       364       366       365       364       367       366       364       367
       364       367       368       364       367       369       364       367       370
       368       367       369       368       367       370       369       367       370
       367       370       371       367       370       372       367       370       373
       371       370       372       371       370       373       372       370       373
       356       374       375       356       374       376       375       374       376
       374       376       377       374       376       378       377       376       378
       376       378       379       376       378       380       376       378       398
       379       378       380       379       378       398       380       378       398
       378       380       381       378       380       382       378       380       383
       381       380       382       381       380       383       382       380       383
       380       383       384       380       383       385       380       383       386
       384       383       385       384       383       386       385       383       386
       383       386       387       383       386       388       383       386       389
       387       386       388       387       386       389       388       386       389
       386       389       390       386       389       391       390       389       391
       389       391       392       389       391       395       392       391       395
       391       392       393       391       392       394       393       392       394
       391       395       396       391       395       397       396       395       397
       378       398       399       378       398       400       399       398       400
       398       400       401       398       400       402       401       400       402
       400       402       403       400       402       404       400       402       415
       403       402       404       403       402       415       404       402       415
       402       404       405       402       404       406       402       404       407
       405       404       406       405       404       407       406       404       407
       404       407       408       404       407       409       404       407       410
       408       407       409       408       407       410       409       407       410
       407       410       411       407       410       412       411       410       412
       410       412       413       410       412       414       413       412       414
       402       415       416       402       415       417       416       415       417
       415       417       418       415       417       419       418       417       419
       417       419       420       417       419       421       417       419       432
       420       419       421       420       419       432       421       419       432
       419       421       422       419       421       423       419       421       424
       422       421       423       422       421       424       423       421       424
       421       424       425       421       424       426       421       424       427
       425       424       426       425       424       427       426       424       427
       424       427       428       424       427       429       428       427       429
       427       429       430       427       429       431       430       429       431
       419       432       433       419       432       434       433       432       434
       432       434       435       432       434       436       435       434       436
       438       437       439       438       437       440       438       437       441
       439       437       440       439       437       441       440       437       441
       437       441       442       437       441       443       437       441       444
       442       441       443       442       441       444       443       441       444
       441       444       445       441       444       446       445       444       446
       444       446       447       444       446       448       447       446       448
       446       448       449       446       448       450       446       448       463
       449       448       450       449       448       463       450       448       463
       448       450       451       448       450       452       448       450       456
       451       450       452       451       450       456       452       450       456
       450       452       453       450       452       454       450       452       455
       453       452       454       453       452       455       454       452       455
       450       456       457       450       456       458       450       456       459
       457       456       458       457       456       459       458       456       459
       456       459       460       456       459       461       456       459       462
       460       459       461       460       459       462       461       459       462
       448       463       464       448       463       465       464       463       465
       463       465       466       463       465       467       466       465       467
       465       467       468       465       467       469       465       467       470
       468       467       469       468       467       470       469       467       470
       467       470       471       467       470       472       471       470       472
       470       472       473       470       472       474       473       472       474
       472       474       475       472       474       476       472       474       480
       475       474       476       475       474       480       476       474       480
       474       476       477       474       476       478       474       476       479
       477       476       478       477       476       479       478       476       479
       474       480       481       474       480       482       481       480       482
       480       482       483       480       482       484       483       482       484
       482       484       485       482       484       486       482       484       496
       485       484       486       485       484       496       486       484       496
       484       486       487       484       486       488       484       486       492
       487       486       488       487       486       492       488       486       492
       486       488       489       486       488       490       486       488       491
       489       488       490       489       488       491       490       488       491
       486       492       493       486       492       494       486       492       495
       493       492       494       493       492       495       494       492       495
       484       496       497       484       496       498       497       496       498
       496       498       499       496       498       500       499       498       500
       498       500       501       498       500       502       498       500       515
       501       500       502       501       500       515       502       500       515
       500       502       503       500       502       504       500       502       505
       503       502       504       503       502       505       504       502       505
       502       505       506       502       505       507       502       505       511
       506       505       507       506       505       511       507       505       511
       505       507       508       505       507       509       505       507       510
       508       507       509       508       507       510       509       507       510
       505       511       512       505       511       513       505       511       514
       512       511       513       512       511       514       513       511       514
       500       515       516       500       515       517       516       515       517
       515       517       518       515       517       519       518       517       519
       517       519       520       517       519       521       517       519       537
       520       519       521       520       519       537       521       519       537
       519       521       522       519       521       523       519       521       524
       522       521       523       522       521       524       523       521       524
       521       524       525       521       524       526       521       524       527
       525       524       526       525       524       527       526       524       527
       524       527       528       524       527       529       524       527       530
       528       527       529       528       527       530       529       527       530
       527       530       531       527       530       532       527       530       533
       531       530       532       531       530       533       532       530       533
       530       533       534       530       533       535       530       533       536
       534       533       535       534       533       536       535       533       536
       519       537       538       519       537       539       538       537       539
       537       539       540       537       539       541       540       539       541
       539       541       542       539       541       543       539       541       553
       542       541       543       542       541       553       543       541       553
       541       543       544       541       543       545       541       543       549
       544       543       545       544       543       549       545       543       549
       543       545       546       543       545       547       543       545       548
       546       545       547       546       545       548       547       545       548
       543       549       550       543       549       551       543       549       552
       550       549       551       550       549       552       551       549       552
       541       553       554       541       553       555       554       553       555
       553       555       556       553       555       557       556       555       557
       555       557       558       555       557       559       555       557       572
       558       557       559       558       557       572       559       557       572
       557       559       560       557       559       561       557       559       562
       560       559       561       560       559       562       561       559       562
       559       562       563       559       562       564       559       562       568
       563       562       564       563       562       568       564       562       568
       562       564       565       562       564       566       562       564       567
       565       564       566       565       564       567       566       564       567
       562       568       569       562       568       570       562       568       571
       569       568       570       569       568       571       570       568       571
       557       572       573       557       572       574       573       572       574
       572       574       575       572       574       576       575       574       576
       574       576       577       574       576       578       574       576       586
       577       576       578       577       576       586       578       576       586
       576       578       579       576       578       580       576       578       582
       579       578       580       579       578       582       580       578       582
       578       580       581       578       582       583       578       582       584
       578       582       585       583       582       584       583       582       585
       584       582       585       576       586       587       576       586       588
       587       586       588       586       588       589       586       588       590
       589       588       590       588       590       591       588       590       592
       588       590       600       591       590       592       591       590       600
       592       590       600       590       592       593       590       592       594
       590       592       596       593       592       594       593       592       596
       594       592       596       592       594       595       592       596       597
       592       596       598       592       596       599       597       596       598
       597       596       599       598       596       599       590       600       601
       590       600       602       601       600       602       600       602       603
       600       602       604       603       602       604       602       604       605
       602       604       606       602       604       607       605       604       606
       605       604       607       606       604       607       604       607       608
       604       607       609       608       607       609       607       609       610
       607       609       611       610       609       611       609       611       612
       609       611       613       609       611       626       612       611       613
       612       611       626       613       611       626       611       613       614
       611       613       615       611       613       616       614       613       615
       614       613       616       615       613       616       613       616       617
       613       616       618       613       616       622       617       616       618
       617       616       622       618       616       622       616       618       619
       616       618       620       616       618       621       619       618       620
       619       618       621       620       618       621       616       622       623
       616       622       624       616       622       625       623       622       624
       623       622       625       624       622       625       611       626       627
       611       626       628       627       626       628       626       628       629
       626       628       632       629       628       632       628       629       630
       628       629       631       628       629       637       630       629       631
       630       629       637       631       629       637       628       632       633
       628       632       634       628       632       640       633       632       634
       633       632       640       634       632       640       632       634       635
       632       634       636       632       634       637       635       634       636
       635       634       637       636       634       637       629       637       634
       629       637       638       629       637       639       634       637       638
       634       637       639       638       637       639       632       640       641
       632       640       642       641       640       642       640       642       643
       640       642       644       643       642       644       642       644       645
       642       644       646       642       644       650       645       644       646
       645       644       650       646       644       650       644       646       647
       644       646       648       644       646       649       647       646       648
       647       646       649       648       646       649       644       650       651
       644       650       652       651       650       652       650       652       653
       650       652       654       653       652       654       652       654       655
       652       654       656       652       654       669       655       654       656
       655       654       669       656       654       669       654       656       657
       654       656       658       654       656       659       657       656       658
       657       656       659       658       656       659       656       659       660
       656       659       661       656       659       665       660       659       661
       660       659       665       661       659       665       659       661       662
       659       661       663       659       661       664       662       661       663
       662       661       664       663       661       664       659       665       666
       659       665       667       659       665       668       666       665       667
       666       665       668       667       665       668       654       669       670
       654       669       671       670       669       671       669       671       672
       669       671       673       672       671       673       671       673       674
       671       673       675       671       673       688       674       673       675
       674       673       688       675       673       688       673       675       676
       673       675       677       673       675       681       676       675       677
       676       675       681       677       675       681       675       677       678
       675       677       679       675       677       680       678       677       679
       678       677       680       679       677       680       675       681       682
       675       681       683       675       681       684       682       681       683
       682       681       684       683       681       684       681       684       685
       681       684       686       681       684       687       685       684       686
       685       684       687       686       684       687       673       688       689
       673       688       690       689       688       690       688       690       691
       688       690       692       691       690       692       690       692       693
       690       692       694       690       692       699       693       692       694
       693       692       699       694       692       699       692       694       695
       692       694       696       692       694       697       695       694       696
       695       694       697       696       694       697       694       697       698
       692       699       700       692       699       701       700       699       701
       699       701       702       699       701       703       702       701       703
       701       703       704       701       703       705       701       703       723
       704       703       705       704       703       723       705       703       723
       703       705       706       703       705       707       703       705       708
       706       705       707       706       705       708       707       705       708
       705       708       709       705       708       714       709       708       714
       708       709       710       708       709       711       710       709       711
       709       711       712       709       711       713       712       711       713
       711       713       714       711       713       719       714       713       719
       708       714       713       708       714       715       713       714       715
       714       715       716       714       715       717       716       715       717
       715       717       718       715       717       721       718       717       721
       713       719       720       713       719       721       720       719       721
       717       721       719       717       721       722       719       721       722
       703       723       724       703       723       725       724       723       725
       723       725       726       723       725       727       726       725       727
       725       727       728       725       727       729       725       727       742
       728       727       729       728       727       742       729       727       742
       727       729       730       727       729       731       727       729       735
       730       729       731       730       729       735       731       729       735
       729       731       732       729       731       733       729       731       734
       732       731       733       732       731       734       733       731       734
       729       735       736       729       735       737       729       735       738
       736       735       737       736       735       738       737       735       738
       735       738       739       735       738       740       735       738       741
       739       738       740       739       738       741       740       738       741
       727       742       743       727       742       744       743       742       744
       742       744       745       742       744       746       745       744       746
       744       746       747       744       746       748       744       746       764
       747       746       748       747       746       764       748       746       764
       746       748       749       746       748       750       746       748       751
       749       748       750       749       748       751       750       748       751
       748       751       752       748       751       753       748       751       754
       752       751       753       752       751       754       753       751       754
       751       754       755       751       754       756       751       754       757
       755       754       756       755       754       757       756       754       757
       754       757       758       754       757       759       754       757       760
       758       757       759       758       757       760       759       757       760
       757       760       761       757       760       762       757       760       763
       761       760       762       761       760       763       762       760       763
       746       764       765       746       764       766       765       764       766
       764       766       767       764       766       768       767       766       768
       766       768       769       766       768       770       766       768       788
       769       768       770       769       768       788       770       768       788
       768       770       771       768       770       772       768       770       773
       771       770       772       771       770       773       772       770       773
       770       773       774       770       773       775       770       773       776
       774       773       775       774       773       776       775       773       776
       773       776       777       773       776       778       773       776       779
       777       776       778       777       776       779       778       776       779
       776       779       780       776       779       781       780       779       781
       779       781       782       779       781       785       782       781       785
       781       782       783       781       782       784       783       782       784
       781       785       786       781       785       787       786       785       787
       768       788       789       768       788       790       789       788       790
       788       790       791       788       790       792       791       790       792
       790       792       793       790       792       794       790       792       810
       793       792       794       793       792       810       794       792       810
       792       794       795       792       794       796       792       794       797
       795       794       796       795       794       797       796       794       797
       794       797       798       794       797       799       794       797       800
       798       797       799       798       797       800       799       797       800
       797       800       801       797       800       802       797       800       803
       801       800       802       801       800       803       802       800       803
       800       803       804       800       803       805       800       803       806
       804       803       805       804       803       806       805       803       806
       803       806       807       803       806       808       803       806       809
       807       806       808       807       806       809       808       806       809
       792       810       811       792       810       812       811       810       812
       810       812       813       810       812       814       813       812       814
       812       814       815       812       814       816       812       814       834
       815       814       816       815       814       834       816       814       834
       814       816       817       814       816       818       814       816       819
       817       816       818       817       816       819       818       816       819
       816       819       820       816       819       821       816       819       822
       820       819       821       820       819       822       821       819       822
       819       822       823       819       822       824       819       822       825
       823       822       824       823       822       825       824       822       825
       822       825       826       822       825       827       826       825       827
       825       827       828       825       827       831       828       827       831
       827       828       829       827       828       830       829       828       830
       827       831       832       827       831       833       832       831       833
       814       834       835       814       834       836       835       834       836
       834       836       837       834       836       838       837       836       838
       836       838       839       836       838       840       836       838       851
       839       838       840       839       838       851       840       838       851
       838       840       841       838       840       842       838       840       843
       841       840       842       841       840       843       842       840       843
       840       843       844       840       843       845       840       843       846
       844       843       845       844       843       846       845       843       846
       843       846       847       843       846       848       847       846       848
       846       848       849       846       848       850       849       848       850
       838       851       852       838       851       853       852       851       853
       851       853       854       851       853       855       854       853       855
       853       855       856       853       855       857       853       855       868
       856       855       857       856       855       868       857       855       868
       855       857       858       855       857       859       855       857       860
       858       857       859       858       857       860       859       857       860
       857       860       861       857       860       862       857       860       863
       861       860       862       861       860       863       862       860       863
       860       863       864       860       863       865       864       863       865
       863       865       866       863       865       867       866       865       867
       855       868       869       855       868       870       869       868       870
       868       870       871       868       870       872       871       870       872
       873       874       875       873       874       876       873       874       889
       873       877       878       873       877       879       873       877       880
       873       881       882       873       881       883       873       881       884
       873       885       886       873       885       887       873       885       888
       874       873       877       874       873       881       874       873       885
       874       889       890       874       889       891       874       889       895
       875       874       876       875       874       889       876       874       889
       877       873       881       877       873       885       878       877       879
       878       877       880       879       877       880       881       873       885
       882       881       883       882       881       884       883       881       884
       886       885       887       886       885       888       887       885       888
       889       895       892       890       889       891       890       889       895
       891       889       895       892       896       897       893       892       894
       893       892       895       893       892       896       894       892       895
       894       892       896       895       892       896       896       897       898
       896       897       899       896       897       900       897       900       901
       897       900       902       897       900       908       898       897       899
       898       897       900       899       897       900       900       902       903
       900       908       909       900       908       910       900       908       911
       901       900       902       901       900       908       902       900       908
       902       903       904       902       903       905       903       905       906
       903       905       907       903       905       917       904       903       905
       905       917       918       905       917       919       905       917       920
       906       905       907       906       905       917       907       905       917
       908       911       912       909       908       910       909       908       911
       910       908       911       911       912       913       911       912       914
       912       914       915       912       914       916       912       914       964
       913       912       914       914       964       965       914       964       966
       914       964       967       915       914       916       915       914       964
       916       914       964       917       920       921       917       920       922
       917       920       923       918       917       919       918       917       920
       919       917       920       920       923       924       920       923       925
       920       923       926       921       920       922       921       920       923
       922       920       923       923       926       927       923       926       928
       923       926       929       924       923       925       924       923       926
       925       923       926       926       929       930       926       929       931
       926       929       932       927       926       928       927       926       929
       928       926       929       929       932       933       929       932       934
       929       932       935       930       929       931       930       929       932
       931       929       932       932       935       936       932       935       937
       933       932       934       933       932       935       934       932       935
       935       937       938       935       937       939       936       935       937
       937       939       940       937       939       941       937       939       942
       938       937       939       939       942       943       939       942       944
       939       942       945       940       939       941       940       939       942
       941       939       942       942       945       946       942       945       947
       942       945       948       943       942       944       943       942       945
       944       942       945       945       948       949       945       948       950
       945       948       951       946       945       947       946       945       948
       947       945       948       948       951       952       948       951       953
       948       951       954       949       948       950       949       948       951
       950       948       951       951       954       955       951       954       956
       951       954       957       952       951       953       952       951       954
       953       951       954       954       957       958       954       957       959
       954       957       960       955       954       956       955       954       957
       956       954       957       957       960       961       957       960       962
       957       960       963       958       957       959       958       957       960
       959       957       960       961       960       962       961       960       963
       962       960       963       964       967       968       964       967       969
       964       967       970       965       964       966       965       964       967
       966       964       967       967       970       971       967       970       972
       967       970       973       968       967       969       968       967       970
       969       967       970       970       973       974       970       973       975
       970       973       976       971       970       972       971       970       973
       972       970       973       973       976       977       973       976       978
       973       976       979       974       973       975       974       973       976
       975       973       976       976       979       980       976       979       981
       976       979       982       977       976       978       977       976       979
       978       976       979       979       982       983       979       982       984
       979       982       985       980       979       981       980       979       982
       981       979       982       982       985       986       982       985       987
       982       985       988       983       982       984       983       982       985
       984       982       985       985       988       989       985       988       990
       985       988       991       986       985       987       986       985       988
       987       985       988       988       991       992       988       991       993
       988       991       994       989       988       990       989       988       991
       990       988       991       991       994       995       991       994       996
       991       994       997       992       991       993       992       991       994
       993       991       994       994       997       998       994       997       999
       994       997      1000       995       994       996       995       994       997
       996       994       997       997      1000      1001       997      1000      1002
       997      1000      1003       998       997       999       998       997      1000
       999       997      1000      1000      1003      1004      1000      1003      1005
      1000      1003      1006      1001      1000      1002      1001      1000      1003
      1002      1000      1003      1004      1003      1005      1004      1003      1006
      1005      1003      1006      1007      1008      1009      1007      1008      1010
      1007      1008      1023      1007      1011      1012      1007      1011      1013
      1007      1011      1014      1007      1015      1016      1007      1015      1017
      1007      1015      1018      1007      1019      1020      1007      1019      1021
      1007      1019      1022      1008      1007      1011      1008      1007      1015
      1008      1007      1019      1008      1023      1024      1008      1023      1025
      1008      1023      1029      1009      1008      1010      1009      1008      1023
      1010      1008      1023      1011      1007      1015      1011      1007      1019
      1012      1011      1013      1012      1011      1014      1013      1011      1014
      1015      1007      1019      1016      1015      1017      1016      1015      1018
      1017      1015      1018      1020      1019      1021      1020      1019      1022
      1021      1019      1022      1023      1029      1026      1024      1023      1025
      1024      1023      1029      1025      1023      1029      1026      1030      1031
      1027      1026      1028      1027      1026      1029      1027      1026      1030
      1028      1026      1029      1028      1026      1030      1029      1026      1030
      1030      1031      1032      1030      1031      1033      1030      1031      1034
      1031      1034      1035      1031      1034      1036      1031      1034      1042
      1032      1031      1033      1032      1031      1034      1033      1031      1034
      1034      1036      1037      1034      1042      1043      1034      1042      1044
      1034      1042      1045      1035      1034      1036      1035      1034      1042
      1036      1034      1042      1036      1037      1038      1036      1037      1039
      1037      1039      1040      1037      1039      1041      1037      1039      1051
      1038      1037      1039      1039      1051      1052      1039      1051      1053
      1039      1051      1054      1040      1039      1041      1040      1039      1051
      1041      1039      1051      1042      1045      1046      1043      1042      1044
      1043      1042      1045      1044      1042      1045      1045      1046      1047
      1045      1046      1048      1046      1048      1049      1046      1048      1050
      1046      1048      1098      1047      1046      1048      1048      1098      1099
      1048      1098      1100      1048      1098      1101      1049      1048      1050
      1049      1048      1098      1050      1048      1098      1051      1054      1055
      1051      1054      1056      1051      1054      1057      1052      1051      1053
      1052      1051      1054      1053      1051      1054      1054      1057      1058
      1054      1057      1059      1054      1057      1060      1055      1054      1056
      1055      1054      1057      1056      1054      1057      1057      1060      1061
      1057      1060      1062      1057      1060      1063      1058      1057      1059
      1058      1057      1060      1059      1057      1060      1060      1063      1064
      1060      1063      1065      1060      1063      1066      1061      1060      1062
      1061      1060      1063      1062      1060      1063      1063      1066      1067
      1063      1066      1068      1063      1066      1069      1064      1063      1065
      1064      1063      1066      1065      1063      1066      1066      1069      1070
      1066      1069      1071      1067      1066      1068      1067      1066      1069
      1068      1066      1069      1069      1071      1072      1069      1071      1073
      1070      1069      1071      1071      1073      1074      1071      1073      1075
      1071      1073      1076      1072      1071      1073      1073      1076      1077
      1073      1076      1078      1073      1076      1079      1074      1073      1075
      1074      1073      1076      1075      1073      1076      1076      1079      1080
      1076      1079      1081      1076      1079      1082      1077      1076      1078
      1077      1076      1079      1078      1076      1079      1079      1082      1083
      1079      1082      1084      1079      1082      1085      1080      1079      1081
      1080      1079      1082      1081      1079      1082      1082      1085      1086
      1082      1085      1087      1082      1085      1088      1083      1082      1084
      1083      1082      1085      1084      1082      1085      1085      1088      1089
      1085      1088      1090      1085      1088      1091      1086      1085      1087
      1086      1085      1088      1087      1085      1088      1088      1091      1092
      1088      1091      1093      1088      1091      1094      1089      1088      1090
      1089      1088      1091      1090      1088      1091      1091      1094      1095
      1091      1094      1096      1091      1094      1097      1092      1091      1093
      1092      1091      1094      1093      1091      1094      1095      1094      1096
      1095      1094      1097      1096      1094      1097      1098      1101      1102
      1098      1101      1103      1098      1101      1104      1099      1098      1100
      1099      1098      1101      1100      1098      1101      1101      1104      1105
      1101      1104      1106      1101      1104      1107      1102      1101      1103
      1102      1101      1104      1103      1101      1104      1104      1107      1108
      1104      1107      1109      1104      1107      1110      1105      1104      1106
      1105      1104      1107      1106      1104      1107      1107      1110      1111
      1107      1110      1112      1107      1110      1113      1108      1107      1109
      1108      1107      1110      1109      1107      1110      1110      1113      1114
      1110      1113      1115      1110      1113      1116      1111      1110      1112
      1111      1110      1113      1112      1110      1113      1113      1116      1117
      1113      1116      1118      1113      1116      1119      1114      1113      1115
      1114      1113      1116      1115      1113      1116      1116      1119      1120
      1116      1119      1121      1116      1119      1122      1117      1116      1118
      1117      1116      1119      1118      1116      1119      1119      1122      1123
      1119      1122      1124      1119      1122      1125      1120      1119      1121
      1120      1119      1122      1121      1119      1122      1122      1125      1126
      1122      1125      1127      1122      1125      1128      1123      1122      1124
      1123      1122      1125      1124      1122      1125      1125      1128      1129
      1125      1128      1130      1125      1128      1131      1126      1125      1127
      1126      1125      1128      1127      1125      1128      1128      1131      1132
      1128      1131      1133      1128      1131      1134      1129      1128      1130
      1129      1128      1131      1130      1128      1131      1131      1134      1135
      1131      1134      1136      1131      1134      1137      1132      1131      1133
      1132      1131      1134      1133      1131      1134      1134      1137      1138
      1134      1137      1139      1134      1137      1140      1135      1134      1136
      1135      1134      1137      1136      1134      1137      1138      1137      1139
      1138      1137      1140      1139      1137      1140      1141      1142      1143
      1141      1142      1144      1141      1142      1157      1141      1145      1146
      1141      1145      1147      1141      1145      1148      1141      1149      1150
      1141      1149      1151      1141      1149      1152      1141      1153      1154
      1141      1153      1155      1141      1153      1156      1142      1141      1145
      1142      1141      1149      1142      1141      1153      1142      1157      1158
      1142      1157      1159      1142      1157      1163      1143      1142      1144
      1143      1142      1157      1144      1142      1157      1145      1141      1149
      1145      1141      1153      1146      1145      1147      1146      1145      1148
      1147      1145      1148      1149      1141      1153      1150      1149      1151
      1150      1149      1152      1151      1149      1152      1154      1153      1155
      1154      1153      1156      1155      1153      1156      1157      1163      1160
      1158      1157      1159      1158      1157      1163      1159      1157      1163
      1160      1164      1165      1161      1160      1162      1161      1160      1163
      1161      1160      1164      1162      1160      1163      1162      1160      1164
      1163      1160      1164      1164      1165      1166      1164      1165      1167
      1164      1165      1168      1165      1168      1169      1165      1168      1170
      1165      1168      1176      1166      1165      1167      1166      1165      1168
      1167      1165      1168      1168      1170      1171      1168      1176      1177
      1168      1176      1178      1168      1176      1179      1169      1168      1170
      1169      1168      1176      1170      1168      1176      1170      1171      1172
      1170      1171      1173      1171      1173      1174      1171      1173      1175
      1171      1173      1185      1172      1171      1173      1173      1185      1186
      1173      1185      1187      1173      1185      1188      1174      1173      1175
      1174      1173      1185      1175      1173      1185      1176      1179      1180
      1177      1176      1178      1177      1176      1179      1178      1176      1179
      1179      1180      1181      1179      1180      1182      1180      1182      1183
      1180      1182      1184      1180      1182      1232      1181      1180      1182
      1182      1232      1233      1182      1232      1234      1182      1232      1235
      1183      1182      1184      1183      1182      1232      1184      1182      1232
      1185      1188      1189      1185      1188      1190      1185      1188      1191
      1186      1185      1187      1186      1185      1188      1187      1185      1188
      1188      1191      1192      1188      1191      1193      1188      1191      1194
      1189      1188      1190      1189      1188      1191      1190      1188      1191
      1191      1194      1195      1191      1194      1196      1191      1194      1197
      1192      1191      1193      1192      1191      1194      1193      1191      1194
      1194      1197      1198      1194      1197      1199      1194      1197      1200
      1195      1194      1196      1195      1194      1197      1196      1194      1197
      1197      1200      1201      1197      1200      1202      1197      1200      1203
      1198      1197      1199      1198      1197      1200      1199      1197      1200
      1200      1203      1204      1200      1203      1205      1201      1200      1202
      1201      1200      1203      1202      1200      1203      1203      1205      1206
      1203      1205      1207      1204      1203      1205      1205      1207      1208
      1205      1207      1209      1205      1207      1210      1206      1205      1207
      1207      1210      1211      1207      1210      1212      1207      1210      1213
      1208      1207      1209      1208      1207      1210      1209      1207      1210
      1210      1213      1214      1210      1213      1215      1210      1213      1216
      1211      1210      1212      1211      1210      1213      1212      1210      1213
      1213      1216      1217      1213      1216      1218      1213      1216      1219
      1214      1213      1215      1214      1213      1216      1215      1213      1216
      1216      1219      1220      1216      1219      1221      1216      1219      1222
      1217      1216      1218      1217      1216      1219      1218      1216      1219
      1219      1222      1223      1219      1222      1224      1219      1222      1225
      1220      1219      1221      1220      1219      1222      1221      1219      1222
      1222      1225      1226      1222      1225      1227      1222      1225      1228
      1223      1222      1224      1223      1222      1225      1224      1222      1225
      1225      1228      1229      1225      1228      1230      1225      1228      1231
      1226      1225      1227      1226      1225      1228      1227      1225      1228
      1229      1228      1230      1229      1228      1231      1230      1228      1231
      1232      1235      1236      1232      1235      1237      1232      1235      1238
      1233      1232      1234      1233      1232      1235      1234      1232      1235
      1235      1238      1239      1235      1238      1240      1235      1238      1241
      1236      1235      1237      1236      1235      1238      1237      1235      1238
      1238      1241      1242      1238      1241      1243      1238      1241      1244
      1239      1238      1240      1239      1238      1241      1240      1238      1241
      1241      1244      1245      1241      1244      1246      1241      1244      1247
      1242      1241      1243      1242      1241      1244      1243      1241      1244
      1244      1247      1248      1244      1247      1249      1244      1247      1250
      1245      1244      1246      1245      1244      1247      1246      1244      1247
      1247      1250      1251      1247      1250      1252      1247      1250      1253
      1248      1247      1249      1248      1247      1250      1249      1247      1250
      1250      1253      1254      1250      1253      1255      1250      1253      1256
      1251      1250      1252      1251      1250      1253      1252      1250      1253
      1253      1256      1257      1253      1256      1258      1253      1256      1259
      1254      1253      1255      1254      1253      1256      1255      1253      1256
      1256      1259      1260      1256      1259      1261      1256      1259      1262
      1257      1256      1258      1257      1256      1259      1258      1256      1259
      1259      1262      1263      1259      1262      1264      1259      1262      1265
      1260      1259      1261      1260      1259      1262      1261      1259      1262
      1262      1265      1266      1262      1265      1267      1262      1265      1268
      1263      1262      1264      1263      1262      1265      1264      1262      1265
      1265      1268      1269      1265      1268      1270      1265      1268      1271
      1266      1265      1267      1266      1265      1268      1267      1265      1268
      1268      1271      1272      1268      1271      1273      1268      1271      1274
      1269      1268      1270      1269      1268      1271      1270      1268      1271
      1272      1271      1273      1272      1271      1274      1273      1271      1274
      1275      1276      1277      1275      1276      1278      1275      1276      1291
      1275      1279      1280      1275      1279      1281      1275      1279      1282
      1275      1283      1284      1275      1283      1285      1275      1283      1286
      1275      1287      1288      1275      1287      1289      1275      1287      1290
      1276      1275      1279      1276      1275      1283      1276      1275      1287
      1276      1291      1292      1276      1291      1293      1276      1291      1297
      1277      1276      1278      1277      1276      1291      1278      1276      1291
      1279      1275      1283      1279      1275      1287      1280      1279      1281
      1280      1279      1282      1281      1279      1282      1283      1275      1287
      1284      1283      1285      1284      1283      1286      1285      1283      1286
      1288      1287      1289      1288      1287      1290      1289      1287      1290
      1291      1297      1294      1292      1291      1293      1292      1291      1297
      1293      1291      1297      1294      1298      1299      1295      1294      1296
      1295      1294      1297      1295      1294      1298      1296      1294      1297
      1296      1294      1298      1297      1294      1298      1298      1299      1300
      1298      1299      1301      1298      1299      1302      1299      1302      1303
      1299      1302      1304      1299      1302      1310      1300      1299      1301
      1300      1299      1302      1301      1299      1302      1302      1304      1305
      1302      1310      1311      1302      1310      1312      1302      1310      1313
      1303      1302      1304      1303      1302      1310      1304      1302      1310
      1304      1305      1306      1304      1305      1307      1305      1307      1308
      1305      1307      1309      1305      1307      1319      1306      1305      1307
      1307      1319      1320      1307      1319      1321      1307      1319      1322
      1308      1307      1309      1308      1307      1319      1309      1307      1319
      1310      1313      1314      1311      1310      1312      1311      1310      1313
      1312      1310      1313      1313      1314      1315      1313      1314      1316
      1314      1316      1317      1314      1316      1318      1314      1316      1366
      1315      1314      1316      1316      1366      1367      1316      1366      1368
      1316      1366      1369      1317      1316      1318      1317      1316      1366
      1318      1316      1366      1319      1322      1323      1319      1322      1324
      1319      1322      1325      1320      1319      1321      1320      1319      1322
      1321      1319      1322      1322      1325      1326      1322      1325      1327
      1322      1325      1328      1323      1322      1324      1323      1322      1325
      1324      1322      1325      1325      1328      1329      1325      1328      1330
      1325      1328      1331      1326      1325      1327      1326      1325      1328
      1327      1325      1328      1328      1331      1332      1328      1331      1333
      1328      1331      1334      1329      1328      1330      1329      1328      1331
      1330      1328      1331      1331      1334      1335      1331      1334      1336
      1331      1334      1337      1332      1331      1333      1332      1331      1334
      1333      1331      1334      1334      1337      1338      1334      1337      1339
      1335      1334      1336      1335      1334      1337      1336      1334      1337
      1337      1339      1340      1337      1339      1341      1338      1337      1339
      1339      1341      1342      1339      1341      1343      1339      1341      1344
      1340      1339      1341      1341      1344      1345      1341      1344      1346
      1341      1344      1347      1342      1341      1343      1342      1341      1344
      1343      1341      1344      1344      1347      1348      1344      1347      1349
      1344      1347      1350      1345      1344      1346      1345      1344      1347
      1346      1344      1347      1347      1350      1351      1347      1350      1352
      1347      1350      1353      1348      1347      1349      1348      1347      1350
      1349      1347      1350      1350      1353      1354      1350      1353      1355
      1350      1353      1356      1351      1350      1352      1351      1350      1353
      1352      1350      1353      1353      1356      1357      1353      1356      1358
      1353      1356      1359      1354      1353      1355      1354      1353      1356
      1355      1353      1356      1356      1359      1360      1356      1359      1361
      1356      1359      1362      1357      1356      1358      1357      1356      1359
      1358      1356      1359      1359      1362      1363      1359      1362      1364
      1359      1362      1365      1360      1359      1361      1360      1359      1362
      1361      1359      1362      1363      1362      1364      1363      1362      1365
      1364      1362      1365      1366      1369      1370      1366      1369      1371
      1366      1369      1372      1367      1366      1368      1367      1366      1369
      1368      1366      1369      1369      1372      1373      1369      1372      1374
      1369      1372      1375      1370      1369      1371      1370      1369      1372
      1371      1369      1372      1372      1375      1376      1372      1375      1377
      1372      1375      1378      1373      1372      1374      1373      1372      1375
      1374      1372      1375      1375      1378      1379      1375      1378      1380
      1375      1378      1381      1376      1375      1377      1376      1375      1378
      1377      1375      1378      1378      1381      1382      1378      1381      1383
      1378      1381      1384      1379      1378      1380      1379      1378      1381
      1380      1378      1381      1381      1384      1385      1381      1384      1386
      1381      1384      1387      1382      1381      1383      1382      1381      1384
      1383      1381      1384      1384      1387      1388      1384      1387      1389
      1384      1387      1390      1385      1384      1386      1385      1384      1387
      1386      1384      1387      1387      1390      1391      1387      1390      1392
      1387      1390      1393      1388      1387      1389      1388      1387      1390
      1389      1387      1390      1390      1393      1394      1390      1393      1395
      1390      1393      1396      1391      1390      1392      1391      1390      1393
      1392      1390      1393      1393      1396      1397      1393      1396      1398
      1393      1396      1399      1394      1393      1395      1394      1393      1396
      1395      1393      1396      1396      1399      1400      1396      1399      1401
      1396      1399      1402      1397      1396      1398      1397      1396      1399
      1398      1396      1399      1399      1402      1403      1399      1402      1404
      1399      1402      1405      1400      1399      1401      1400      1399      1402
      1401      1399      1402      1402      1405      1406      1402      1405      1407
      1402      1405      1408      1403      1402      1404      1403      1402      1405
      1404      1402      1405      1406      1405      1407      1406      1405      1408
      1407      1405      1408      1409      1410      1411      1409      1410      1412
      1409      1410      1425      1409      1413      1414      1409      1413      1415
      1409      1413      1416      1409      1417      1418      1409      1417      1419
      1409      1417      1420      1409      1421      1422      1409      1421      1423
      1409      1421      1424      1410      1409      1413      1410      1409      1417
      1410      1409      1421      1410      1425      1426      1410      1425      1427
      1410      1425      1431      1411      1410      1412      1411      1410      1425
      1412      1410      1425      1413      1409      1417      1413      1409      1421
      1414      1413      1415      1414      1413      1416      1415      1413      1416
      1417      1409      1421      1418      1417      1419      1418      1417      1420
      1419      1417      1420      1422      1421      1423      1422      1421      1424
      1423      1421      1424      1425      1431      1428      1426      1425      1427
      1426      1425      1431      1427      1425      1431      1428      1432      1433
      1429      1428      1430      1429      1428      1431      1429      1428      1432
      1430      1428      1431      1430      1428      1432      1431      1428      1432
      1432      1433      1434      1432      1433      1435      1432      1433      1436
      1433      1436      1437      1433      1436      1438      1433      1436      1444
      1434      1433      1435      1434      1433      1436      1435      1433      1436
      1436      1438      1439      1436      1444      1445      1436      1444      1446
      1436      1444      1447      1437      1436      1438      1437      1436      1444
      1438      1436      1444      1438      1439      1440      1438      1439      1441
      1439      1441      1442      1439      1441      1443      1439      1441      1453
      1440      1439      1441      1441      1453      1454      1441      1453      1455
      1441      1453      1456      1442      1441      1443      1442      1441      1453
      1443      1441      1453      1444      1447      1448      1445      1444      1446
      1445      1444      1447      1446      1444      1447      1447      1448      1449
      1447      1448      1450      1448      1450      1451      1448      1450      1452
      1448      1450      1500      1449      1448      1450      1450      1500      1501
      1450      1500      1502      1450      1500      1503      1451      1450      1452
      1451      1450      1500      1452      1450      1500      1453      1456      1457
      1453      1456      1458      1453      1456      1459      1454      1453      1455
      1454      1453      1456      1455      1453      1456      1456      1459      1460
      1456      1459      1461      1456      1459      1462      1457      1456      1458
      1457      1456      1459      1458      1456      1459      1459      1462      1463
      1459      1462      1464      1459      1462      1465      1460      1459      1461
      1460      1459      1462      1461      1459      1462      1462      1465      1466
      1462      1465      1467      1462      1465      1468      1463      1462      1464
      1463      1462      1465      1464      1462      1465      1465      1468      1469
      1465      1468      1470      1465      1468      1471      1466      1465      1467
      1466      1465      1468      1467      1465      1468      1468      1471      1472
      1468      1471      1473      1469      1468      1470      1469      1468      1471
      1470      1468      1471      1471      1473      1474      1471      1473      1475
      1472      1471      1473      1473      1475      1476      1473      1475      1477
      1473      1475      1478      1474      1473      1475      1475      1478      1479
      1475      1478      1480      1475      1478      1481      1476      1475      1477
      1476      1475      1478      1477      1475      1478      1478      1481      1482
      1478      1481      1483      1478      1481      1484      1479      1478      1480
      1479      1478      1481      1480      1478      1481      1481      1484      1485
      1481      1484      1486      1481      1484      1487      1482      1481      1483
      1482      1481      1484      1483      1481      1484      1484      1487      1488
      1484      1487      1489      1484      1487      1490      1485      1484      1486
      1485      1484      1487      1486      1484      1487      1487      1490      1491
      1487      1490      1492      1487      1490      1493      1488      1487      1489
      1488      1487      1490      1489      1487      1490      1490      1493      1494
      1490      1493      1495      1490      1493      1496      1491      1490      1492
      1491      1490      1493      1492      1490      1493      1493      1496      1497
      1493      1496      1498      1493      1496      1499      1494      1493      1495
      1494      1493      1496      1495      1493      1496      1497      1496      1498
      1497      1496      1499      1498      1496      1499      1500      1503      1504
      1500      1503      1505      1500      1503      1506      1501      1500      1502
      1501      1500      1503      1502      1500      1503      1503      1506      1507
      1503      1506      1508      1503      1506      1509      1504      1503      1505
      1504      1503      1506      1505      1503      1506      1506      1509      1510
      1506      1509      1511      1506      1509      1512      1507      1506      1508
      1507      1506      1509      1508      1506      1509      1509      1512      1513
      1509      1512      1514      1509      1512      1515      1510      1509      1511
      1510      1509      1512      1511      1509      1512      1512      1515      1516
      1512      1515      1517      1512      1515      1518      1513      1512      1514
      1513      1512      1515      1514      1512      1515      1515      1518      1519
      1515      1518      1520      1515      1518      1521      1516      1515      1517
      1516      1515      1518      1517      1515      1518      1518      1521      1522
      1518      1521      1523      1518      1521      1524      1519      1518      1520
      1519      1518      1521      1520      1518      1521      1521      1524      1525
      1521      1524      1526      1521      1524      1527      1522      1521      1523
      1522      1521      1524      1523      1521      1524      1524      1527      1528
      1524      1527      1529      1524      1527      1530      1525      1524      1526
      1525      1524      1527      1526      1524      1527      1527      1530      1531
      1527      1530      1532      1527      1530      1533      1528      1527      1529
      1528      1527      1530      1529      1527      1530      1530      1533      1534
      1530      1533      1535      1530      1533      1536      1531      1530      1532
      1531      1530      1533      1532      1530      1533      1533      1536      1537
      1533      1536      1538      1533      1536      1539      1534      1533      1535
      1534      1533      1536      1535      1533      1536      1536      1539      1540
      1536      1539      1541      1536      1539      1542      1537      1536      1538
      1537      1536      1539      1538      1536      1539      1540      1539      1541
      1540      1539      1542      1541      1539      1542      1543      1544      1545
      1543      1544      1546      1543      1544      1559      1543      1547      1548
      1543      1547      1549      1543      1547      1550      1543      1551      1552
      1543      1551      1553      1543      1551      1554      1543      1555      1556
      1543      1555      1557      1543      1555      1558      1544      1543      1547
      1544      1543      1551      1544      1543      1555      1544      1559      1560
      1544      1559      1561      1544      1559      1565      1545      1544      1546
      1545      1544      1559      1546      1544      1559      1547      1543      1551
      1547      1543      1555      1548      1547      1549      1548      1547      1550
      1549      1547      1550      1551      1543      1555      1552      1551      1553
      1552      1551      1554      1553      1551      1554      1556      1555      1557
      1556      1555      1558      1557      1555      1558      1559      1565      1562
      1560      1559      1561      1560      1559      1565      1561      1559      1565
      1562      1566      1567      1563      1562      1564      1563      1562      1565
      1563      1562      1566      1564      1562      1565      1564      1562      1566
      1565      1562      1566      1566      1567      1568      1566      1567      1569
      1566      1567      1570      1567      1570      1571      1567      1570      1572
      1567      1570      1578      1568      1567      1569      1568      1567      1570
      1569      1567      1570      1570      1572      1573      1570      1578      1579
      1570      1578      1580      1570      1578      1581      1571      1570      1572
      1571      1570      1578      1572      1570      1578      1572      1573      1574
      1572      1573      1575      1573      1575      1576      1573      1575      1577
      1573      1575      1587      1574      1573      1575      1575      1587      1588
      1575      1587      1589      1575      1587      1590      1576      1575      1577
      1576      1575      1587      1577      1575      1587      1578      1581      1582
      1579      1578      1580      1579      1578      1581      1580      1578      1581
      1581      1582      1583      1581      1582      1584      1582      1584      1585
      1582      1584      1586      1582      1584      1634      1583      1582      1584
      1584      1634      1635      1584      1634      1636      1584      1634      1637
      1585      1584      1586      1585      1584      1634      1586      1584      1634
      1587      1590      1591      1587      1590      1592      1587      1590      1593
      1588      1587      1589      1588      1587      1590      1589      1587      1590
      1590      1593      1594      1590      1593      1595      1590      1593      1596
      1591      1590      1592      1591      1590      1593      1592      1590      1593
      1593      1596      1597      1593      1596      1598      1593      1596      1599
      1594      1593      1595      1594      1593      1596      1595      1593      1596
      1596      1599      1600      1596      1599      1601      1596      1599      1602
      1597      1596      1598      1597      1596      1599      1598      1596      1599
      1599      1602      1603      1599      1602      1604      1599      1602      1605
      1600      1599      1601      1600      1599      1602      1601      1599      1602
      1602      1605      1606      1602      1605      1607      1603      1602      1604
      1603      1602      1605      1604      1602      1605      1605      1607      1608
      1605      1607      1609      1606      1605      1607      1607      1609      1610
      1607      1609      1611      1607      1609      1612      1608      1607      1609
      1609      1612      1613      1609      1612      1614      1609      1612      1615
      1610      1609      1611      1610      1609      1612      1611      1609      1612
      1612      1615      1616      1612      1615      1617      1612      1615      1618
      1613      1612      1614      1613      1612      1615      1614      1612      1615
      1615      1618      1619      1615      1618      1620      1615      1618      1621
      1616      1615      1617      1616      1615      1618      1617      1615      1618
      1618      1621      1622      1618      1621      1623      1618      1621      1624
      1619      1618      1620      1619      1618      1621      1620      1618      1621
      1621      1624      1625      1621      1624      1626      1621      1624      1627
      1622      1621      1623      1622      1621      1624      1623      1621      1624
      1624      1627      1628      1624      1627      1629      1624      1627      1630
      1625      1624      1626      1625      1624      1627      1626      1624      1627
      1627      1630      1631      1627      1630      1632      1627      1630      1633
      1628      1627      1629      1628      1627      1630      1629      1627      1630
      1631      1630      1632      1631      1630      1633      1632      1630      1633
      1634      1637      1638      1634      1637      1639      1634      1637      1640
      1635      1634      1636      1635      1634      1637      1636      1634      1637
      1637      1640      1641      1637      1640      1642      1637      1640      1643
      1638      1637      1639      1638      1637      1640      1639      1637      1640
      1640      1643      1644      1640      1643      1645      1640      1643      1646
      1641      1640      1642      1641      1640      1643      1642      1640      1643
      1643      1646      1647      1643      1646      1648      1643      1646      1649
      1644      1643      1645      1644      1643      1646      1645      1643      1646
      1646      1649      1650      1646      1649      1651      1646      1649      1652
      1647      1646      1648      1647      1646      1649      1648      1646      1649
      1649      1652      1653      1649      1652      1654      1649      1652      1655
      1650      1649      1651      1650      1649      1652      1651      1649      1652
      1652      1655      1656      1652      1655      1657      1652      1655      1658
      1653      1652      1654      1653      1652      1655      1654      1652      1655
      1655      1658      1659      1655      1658      1660      1655      1658      1661
      1656      1655      1657      1656      1655      1658      1657      1655      1658
      1658      1661      1662      1658      1661      1663      1658      1661      1664
      1659      1658      1660      1659      1658      1661      1660      1658      1661
      1661      1664      1665      1661      1664      1666      1661      1664      1667
      1662      1661      1663      1662      1661      1664      1663      1661      1664
      1664      1667      1668      1664      1667      1669      1664      1667      1670
      1665      1664      1666      1665      1664      1667      1666      1664      1667
      1667      1670      1671      1667      1670      1672      1667      1670      1673
      1668      1667      1669      1668      1667      1670      1669      1667      1670
      1670      1673      1674      1670      1673      1675      1670      1673      1676
      1671      1670      1672      1671      1670      1673      1672      1670      1673
      1674      1673      1675      1674      1673      1676      1675      1673      1676
      1677      1678      1679      1677      1678      1680      1677      1678      1693
      1677      1681      1682      1677      1681      1683      1677      1681      1684
      1677      1685      1686      1677      1685      1687      1677      1685      1688
      1677      1689      1690      1677      1689      1691      1677      1689      1692
      1678      1677      1681      1678      1677      1685      1678      1677      1689
      1678      1693      1694      1678      1693      1695      1678      1693      1699
      1679      1678      1680      1679      1678      1693      1680      1678      1693
      1681      1677      1685      1681      1677      1689      1682      1681      1683
      1682      1681      1684      1683      1681      1684      1685      1677      1689
      1686      1685      1687      1686      1685      1688      1687      1685      1688
      1690      1689      1691      1690      1689      1692      1691      1689      1692
      1693      1699      1696      1694      1693      1695      1694      1693      1699
      1695      1693      1699      1696      1700      1701      1697      1696      1698
      1697      1696      1699      1697      1696      1700      1698      1696      1699
      1698      1696      1700      1699      1696      1700      1700      1701      1702
      1700      1701      1703      1700      1701      1704      1701      1704      1705
      1701      1704      1706      1701      1704      1712      1702      1701      1703
      1702      1701      1704      1703      1701      1704      1704      1706      1707
      1704      1712      1713      1704      1712      1714      1704      1712      1715
      1705      1704      1706      1705      1704      1712      1706      1704      1712
      1706      1707      1708      1706      1707      1709      1707      1709      1710
      1707      1709      1711      1707      1709      1721      1708      1707      1709
      1709      1721      1722      1709      1721      1723      1709      1721      1724
      1710      1709      1711      1710      1709      1721      1711      1709      1721
      1712      1715      1716      1713      1712      1714      1713      1712      1715
      1714      1712      1715      1715      1716      1717      1715      1716      1718
      1716      1718      1719      1716      1718      1720      1716      1718      1768
      1717      1716      1718      1718      1768      1769      1718      1768      1770
      1718      1768      1771      1719      1718      1720      1719      1718      1768
      1720      1718      1768      1721      1724      1725      1721      1724      1726
      1721      1724      1727      1722      1721      1723      1722      1721      1724
      1723      1721      1724      1724      1727      1728      1724      1727      1729
      1724      1727      1730      1725      1724      1726      1725      1724      1727
      1726      1724      1727      1727      1730      1731      1727      1730      1732
      1727      1730      1733      1728      1727      1729      1728      1727      1730
      1729      1727      1730      1730      1733      1734      1730      1733      1735
      1730      1733      1736      1731      1730      1732      1731      1730      1733
      1732      1730      1733      1733      1736      1737      1733      1736      1738
      1733      1736      1739      1734      1733      1735      1734      1733      1736
      1735      1733      1736      1736      1739      1740      1736      1739      1741
      1737      1736      1738      1737      1736      1739      1738      1736      1739
      1739      1741      1742      1739      1741      1743      1740      1739      1741
      1741      1743      1744      1741      1743      1745      1741      1743      1746
      1742      1741      1743      1743      1746      1747      1743      1746      1748
      1743      1746      1749      1744      1743      1745      1744      1743      1746
      1745      1743      1746      1746      1749      1750      1746      1749      1751
      1746      1749      1752      1747      1746      1748      1747      1746      1749
      1748      1746      1749      1749      1752      1753      1749      1752      1754
      1749      1752      1755      1750      1749      1751      1750      1749      1752
      1751      1749      1752      1752      1755      1756      1752      1755      1757
      1752      1755      1758      1753      1752      1754      1753      1752      1755
      1754      1752      1755      1755      1758      1759      1755      1758      1760
      1755      1758      1761      1756      1755      1757      1756      1755      1758
      1757      1755      1758      1758      1761      1762      1758      1761      1763
      1758      1761      1764      1759      1758      1760      1759      1758      1761
      1760      1758      1761      1761      1764      1765      1761      1764      1766
      1761      1764      1767      1762      1761      1763      1762      1761      1764
      1763      1761      1764      1765      1764      1766      1765      1764      1767
      1766      1764      1767      1768      1771      1772      1768      1771      1773
      1768      1771      1774      1769      1768      1770      1769      1768      1771
      1770      1768      1771      1771      1774      1775      1771      1774      1776
      1771      1774      1777      1772      1771      1773      1772      1771      1774
      1773      1771      1774      1774      1777      1778      1774      1777      1779
      1774      1777      1780      1775      1774      1776      1775      1774      1777
      1776      1774      1777      1777      1780      1781      1777      1780      1782
      1777      1780      1783      1778      1777      1779      1778      1777      1780
      1779      1777      1780      1780      1783      1784      1780      1783      1785
      1780      1783      1786      1781      1780      1782      1781      1780      1783
      1782      1780      1783      1783      1786      1787      1783      1786      1788
      1783      1786      1789      1784      1783      1785      1784      1783      1786
      1785      1783      1786      1786      1789      1790      1786      1789      1791
      1786      1789      1792      1787      1786      1788      1787      1786      1789
      1788      1786      1789      1789      1792      1793      1789      1792      1794
      1789      1792      1795      1790      1789      1791      1790      1789      1792
      1791      1789      1792      1792      1795      1796      1792      1795      1797
      1792      1795      1798      1793      1792      1794      1793      1792      1795
      1794      1792      1795      1795      1798      1799      1795      1798      1800
      1795      1798      1801      1796      1795      1797      1796      1795      1798
      1797      1795      1798      1798      1801      1802      1798      1801      1803
      1798      1801      1804      1799      1798      1800      1799      1798      1801
      1800      1798      1801      1801      1804      1805      1801      1804      1806
      1801      1804      1807      1802      1801      1803      1802      1801      1804
      1803      1801      1804      1804      1807      1808      1804      1807      1809
      1804      1807      1810      1805      1804      1806      1805      1804      1807
      1806      1804      1807      1808      1807      1809      1808      1807      1810
      1809      1807      1810      1811      1812      1813      1811      1812      1814
      1811      1812      1827      1811      1815      1816      1811      1815      1817
      1811      1815      1818      1811      1819      1820      1811      1819      1821
      1811      1819      1822      1811      1823      1824      1811      1823      1825
      1811      1823      1826      1812      1811      1815      1812      1811      1819
      1812      1811      1823      1812      1827      1828      1812      1827      1829
      1812      1827      1833      1813      1812      1814      1813      1812      1827
      1814      1812      1827      1815      1811      1819      1815      1811      1823
      1816      1815      1817      1816      1815      1818      1817      1815      1818
      1819      1811      1823      1820      1819      1821      1820      1819      1822
      1821      1819      1822      1824      1823      1825      1824      1823      1826
      1825      1823      1826      1827      1833      1830      1828      1827      1829
      1828      1827      1833      1829      1827      1833      1830      1834      1835
      1831      1830      1832      1831      1830      1833      1831      1830      1834
      1832      1830      1833      1832      1830      1834      1833      1830      1834
      1834      1835      1836      1834      1835      1837      1834      1835      1838
      1835      1838      1839      1835      1838      1840      1835      1838      1846
      1836      1835      1837      1836      1835      1838      1837      1835      1838
      1838      1840      1841      1838      1846      1847      1838      1846      1848
      1838      1846      1849      1839      1838      1840      1839      1838      1846
      1840      1838      1846      1840      1841      1842      1840      1841      1843
      1841      1843      1844      1841      1843      1845      1841      1843      1855
      1842      1841      1843      1843      1855      1856      1843      1855      1857
      1843      1855      1858      1844      1843      1845      1844      1843      1855
      1845      1843      1855      1846      1849      1850      1847      1846      1848
      1847      1846      1849      1848      1846      1849      1849      1850      1851
      1849      1850      1852      1850      1852      1853      1850      1852      1854
      1850      1852      1902      1851      1850      1852      1852      1902      1903
      1852      1902      1904      1852      1902      1905      1853      1852      1854
      1853      1852      1902      1854      1852      1902      1855      1858      1859
      1855      1858      1860      1855      1858      1861      1856      1855      1857
      1856      1855      1858      1857      1855      1858      1858      1861      1862
      1858      1861      1863      1858      1861      1864      1859      1858      1860
      1859      1858      1861      1860      1858      1861      1861      1864      1865
      1861      1864      1866      1861      1864      1867      1862      1861      1863
      1862      1861      1864      1863      1861      1864      1864      1867      1868
      1864      1867      1869      1864      1867      1870      1865      1864      1866
      1865      1864      1867      1866      1864      1867      1867      1870      1871
      1867      1870      1872      1867      1870      1873      1868      1867      1869
      1868      1867      1870      1869      1867      1870      1870      1873      1874
      1870      1873      1875      1871      1870      1872      1871      1870      1873
      1872      1870      1873      1873      1875      1876      1873      1875      1877
      1874      1873      1875      1875      1877      1878      1875      1877      1879
      1875      1877      1880      1876      1875      1877      1877      1880      1881
      1877      1880      1882      1877      1880      1883      1878      1877      1879
      1878      1877      1880      1879      1877      1880      1880      1883      1884
      1880      1883      1885      1880      1883      1886      1881      1880      1882
      1881      1880      1883      1882      1880      1883      1883      1886      1887
      1883      1886      1888      1883      1886      1889      1884      1883      1885
      1884      1883      1886      1885      1883      1886      1886      1889      1890
      1886      1889      1891      1886      1889      1892      1887      1886      1888
      1887      1886      1889      1888      1886      1889      1889      1892      1893
      1889      1892      1894      1889      1892      1895      1890      1889      1891
      1890      1889      1892      1891      1889      1892      1892      1895      1896
      1892      1895      1897      1892      1895      1898      1893      1892      1894
      1893      1892      1895      1894      1892      1895      1895      1898      1899
      1895      1898      1900      1895      1898      1901      1896      1895      1897
      1896      1895      1898      1897      1895      1898      1899      1898      1900
      1899      1898      1901      1900      1898      1901      1902      1905      1906
      1902      1905      1907      1902      1905      1908      1903      1902      1904
      1903      1902      1905      1904      1902      1905      1905      1908      1909
      1905      1908      1910      1905      1908      1911      1906      1905      1907
      1906      1905      1908      1907      1905      1908      1908      1911      1912
      1908      1911      1913      1908      1911      1914      1909      1908      1910
      1909      1908      1911      1910      1908      1911      1911      1914      1915
      1911      1914      1916      1911      1914      1917      1912      1911      1913
      1912      1911      1914      1913      1911      1914      1914      1917      1918
      1914      1917      1919      1914      1917      1920      1915      1914      1916
      1915      1914      1917      1916      1914      1917      1917      1920      1921
      1917      1920      1922      1917      1920      1923      1918      1917      1919
      1918      1917      1920      1919      1917      1920      1920      1923      1924
      1920      1923      1925      1920      1923      1926      1921      1920      1922
      1921      1920      1923      1922      1920      1923      1923      1926      1927
      1923      1926      1928      1923      1926      1929      1924      1923      1925
      1924      1923      1926      1925      1923      1926      1926      1929      1930
      1926      1929      1931      1926      1929      1932      1927      1926      1928
      1927      1926      1929      1928      1926      1929      1929      1932      1933
      1929      1932      1934      1929      1932      1935      1930      1929      1931
      1930      1929      1932      1931      1929      1932      1932      1935      1936
      1932      1935      1937      1932      1935      1938      1933      1932      1934
      1933      1932      1935      1934      1932      1935      1935      1938      1939
      1935      1938      1940      1935      1938      1941      1936      1935      1937
      1936      1935      1938      1937      1935      1938      1938      1941      1942
      1938      1941      1943      1938      1941      1944      1939      1938      1940
      1939      1938      1941      1940      1938      1941      1942      1941      1943
      1942      1941      1944      1943      1941      1944      1945      1946      1947
      1945      1946      1948      1945      1946      1961      1945      1949      1950
      1945      1949      1951      1945      1949      1952      1945      1953      1954
      1945      1953      1955      1945      1953      1956      1945      1957      1958
      1945      1957      1959      1945      1957      1960      1946      1945      1949
      1946      1945      1953      1946      1945      1957      1946      1961      1962
      1946      1961      1963      1946      1961      1967      1947      1946      1948
      1947      1946      1961      1948      1946      1961      1949      1945      1953
      1949      1945      1957      1950      1949      1951      1950      1949      1952
      1951      1949      1952      1953      1945      1957      1954      1953      1955
      1954      1953      1956      1955      1953      1956      1958      1957      1959
      1958      1957      1960      1959      1957      1960      1961      1967      1964
      1962      1961      1963      1962      1961      1967      1963      1961      1967
      1964      1968      1969      1965      1964      1966      1965      1964      1967
      1965      1964      1968      1966      1964      1967      1966      1964      1968
      1967      1964      1968      1968      1969      1970      1968      1969      1971
      1968      1969      1972      1969      1972      1973      1969      1972      1974
      1969      1972      1980      1970      1969      1971      1970      1969      1972
      1971      1969      1972      1972      1974      1975      1972      1980      1981
      1972      1980      1982      1972      1980      1983      1973      1972      1974
      1973      1972      1980      1974      1972      1980      1974      1975      1976
      1974      1975      1977      1975      1977      1978      1975      1977      1979
      1975      1977      1989      1976      1975      1977      1977      1989      1990
      1977      1989      1991      1977      1989      1992      1978      1977      1979
      1978      1977      1989      1979      1977      1989      1980      1983      1984
      1981      1980      1982      1981      1980      1983      1982      1980      1983
      1983      1984      1985      1983      1984      1986      1984      1986      1987
      1984      1986      1988      1984      1986      2036      1985      1984      1986
      1986      2036      2037      1986      2036      2038      1986      2036      2039
      1987      1986      1988      1987      1986      2036      1988      1986      2036
      1989      1992      1993      1989      1992      1994      1989      1992      1995
      1990      1989      1991      1990      1989      1992      1991      1989      1992
      1992      1995      1996      1992      1995      1997      1992      1995      1998
      1993      1992      1994      1993      1992      1995      1994      1992      1995
      1995      1998      1999      1995      1998      2000      1995      1998      2001
      1996      1995      1997      1996      1995      1998      1997      1995      1998
      1998      2001      2002      1998      2001      2003      1998      2001      2004
      1999      1998      2000      1999      1998      2001      2000      1998      2001
      2001      2004      2005      2001      2004      2006      2001      2004      2007
      2002      2001      2003      2002      2001      2004      2003      2001      2004
      2004      2007      2008      2004      2007      2009      2005      2004      2006
      2005      2004      2007      2006      2004      2007      2007      2009      2010
      2007      2009      2011      2008      2007      2009      2009      2011      2012
      2009      2011      2013      2009      2011      2014      2010      2009      2011
      2011      2014      2015      2011      2014      2016      2011      2014      2017
      2012      2011      2013      2012      2011      2014      2013      2011      2014
      2014      2017      2018      2014      2017      2019      2014      2017      2020
      2015      2014      2016      2015      2014      2017      2016      2014      2017
      2017      2020      2021      2017      2020      2022      2017      2020      2023
      2018      2017      2019      2018      2017      2020      2019      2017      2020
      2020      2023      2024      2020      2023      2025      2020      2023      2026
      2021      2020      2022      2021      2020      2023      2022      2020      2023
      2023      2026      2027      2023      2026      2028      2023      2026      2029
      2024      2023      2025      2024      2023      2026      2025      2023      2026
      2026      2029      2030      2026      2029      2031      2026      2029      2032
      2027      2026      2028      2027      2026      2029      2028      2026      2029
      2029      2032      2033      2029      2032      2034      2029      2032      2035
      2030      2029      2031      2030      2029      2032      2031      2029      2032
      2033      2032      2034      2033      2032      2035      2034      2032      2035
      2036      2039      2040      2036      2039      2041      2036      2039      2042
      2037      2036      2038      2037      2036      2039      2038      2036      2039
      2039      2042      2043      2039      2042      2044      2039      2042      2045
      2040      2039      2041      2040      2039      2042      2041      2039      2042
      2042      2045      2046      2042      2045      2047      2042      2045      2048
      2043      2042      2044      2043      2042      2045      2044      2042      2045
      2045      2048      2049      2045      2048      2050      2045      2048      2051
      2046      2045      2047      2046      2045      2048      2047      2045      2048
      2048      2051      2052      2048      2051      2053      2048      2051      2054
      2049      2048      2050      2049      2048      2051      2050      2048      2051
      2051      2054      2055      2051      2054      2056      2051      2054      2057
      2052      2051      2053      2052      2051      2054      2053      2051      2054
      2054      2057      2058      2054      2057      2059      2054      2057      2060
      2055      2054      2056      2055      2054      2057      2056      2054      2057
      2057      2060      2061      2057      2060      2062      2057      2060      2063
      2058      2057      2059      2058      2057      2060      2059      2057      2060
      2060      2063      2064      2060      2063      2065      2060      2063      2066
      2061      2060      2062      2061      2060      2063      2062      2060      2063
      2063      2066      2067      2063      2066      2068      2063      2066      2069
      2064      2063      2065      2064      2063      2066      2065      2063      2066
      2066      2069      2070      2066      2069      2071      2066      2069      2072
      2067      2066      2068      2067      2066      2069      2068      2066      2069
      2069      2072      2073      2069      2072      2074      2069      2072      2075
      2070      2069      2071      2070      2069      2072      2071      2069      2072
      2072      2075      2076      2072      2075      2077      2072      2075      2078
      2073      2072      2074      2073      2072      2075      2074      2072      2075
      2076      2075      2077      2076      2075      2078      2077      2075      2078
      2079      2080      2081      2079      2080      2082      2079      2080      2095
      2079      2083      2084      2079      2083      2085      2079      2083      2086
      2079      2087      2088      2079      2087      2089      2079      2087      2090
      2079      2091      2092      2079      2091      2093      2079      2091      2094
      2080      2079      2083      2080      2079      2087      2080      2079      2091
      2080      2095      2096      2080      2095      2097      2080      2095      2101
      2081      2080      2082      2081      2080      2095      2082      2080      2095
      2083      2079      2087      2083      2079      2091      2084      2083      2085
      2084      2083      2086      2085      2083      2086      2087      2079      2091
      2088      2087      2089      2088      2087      2090      2089      2087      2090
      2092      2091      2093      2092      2091      2094      2093      2091      2094
      2095      2101      2098      2096      2095      2097      2096      2095      2101
      2097      2095      2101      2098      2102      2103      2099      2098      2100
      2099      2098      2101      2099      2098      2102      2100      2098      2101
      2100      2098      2102      2101      2098      2102      2102      2103      2104
      2102      2103      2105      2102      2103      2106      2103      2106      2107
      2103      2106      2108      2103      2106      2114      2104      2103      2105
      2104      2103      2106      2105      2103      2106      2106      2108      2109
      2106      2114      2115      2106      2114      2116      2106      2114      2117
      2107      2106      2108      2107      2106      2114      2108      2106      2114
      2108      2109      2110      2108      2109      2111      2109      2111      2112
      2109      2111      2113      2109      2111      2123      2110      2109      2111
      2111      2123      2124      2111      2123      2125      2111      2123      2126
      2112      2111      2113      2112      2111      2123      2113      2111      2123
      2114      2117      2118      2115      2114      2116      2115      2114      2117
      2116      2114      2117      2117      2118      2119      2117      2118      2120
      2118      2120      2121      2118      2120      2122      2118      2120      2170
      2119      2118      2120      2120      2170      2171      2120      2170      2172
      2120      2170      2173      2121      2120      2122      2121      2120      2170
      2122      2120      2170      2123      2126      2127      2123      2126      2128
      2123      2126      2129      2124      2123      2125      2124      2123      2126
      2125      2123      2126      2126      2129      2130      2126      2129      2131
      2126      2129      2132      2127      2126      2128      2127      2126      2129
      2128      2126      2129      2129      2132      2133      2129      2132      2134
      2129      2132      2135      2130      2129      2131      2130      2129      2132
      2131      2129      2132      2132      2135      2136      2132      2135      2137
      2132      2135      2138      2133      2132      2134      2133      2132      2135
      2134      2132      2135      2135      2138      2139      2135      2138      2140
      2135      2138      2141      2136      2135      2137      2136      2135      2138
      2137      2135      2138      2138      2141      2142      2138      2141      2143
      2139      2138      2140      2139      2138      2141      2140      2138      2141
      2141      2143      2144      2141      2143      2145      2142      2141      2143
      2143      2145      2146      2143      2145      2147      2143      2145      2148
      2144      2143      2145      2145      2148      2149      2145      2148      2150
      2145      2148      2151      2146      2145      2147      2146      2145      2148
      2147      2145      2148      2148      2151      2152      2148      2151      2153
      2148      2151      2154      2149      2148      2150      2149      2148      2151
      2150      2148      2151      2151      2154      2155      2151      2154      2156
      2151      2154      2157      2152      2151      2153      2152      2151      2154
      2153      2151      2154      2154      2157      2158      2154      2157      2159
      2154      2157      2160      2155      2154      2156      2155      2154      2157
      2156      2154      2157      2157      2160      2161      2157      2160      2162
      2157      2160      2163      2158      2157      2159      2158      2157      2160
      2159      2157      2160      2160      2163      2164      2160      2163      2165
      2160      2163      2166      2161      2160      2162      2161      2160      2163
      2162      2160      2163      2163      2166      2167      2163      2166      2168
      2163      2166      2169      2164      2163      2165      2164      2163      2166
      2165      2163      2166      2167      2166      2168      2167      2166      2169
      2168      2166      2169      2170      2173      2174      2170      2173      2175
      2170      2173      2176      2171      2170      2172      2171      2170      2173
      2172      2170      2173      2173      2176      2177      2173      2176      2178
      2173      2176      2179      2174      2173      2175      2174      2173      2176
      2175      2173      2176      2176      2179      2180      2176      2179      2181
      2176      2179      2182      2177      2176      2178      2177      2176      2179
      2178      2176      2179      2179      2182      2183      2179      2182      2184
      2179      2182      2185      2180      2179      2181      2180      2179      2182
      2181      2179      2182      2182      2185      2186      2182      2185      2187
      2182      2185      2188      2183      2182      2184      2183      2182      2185
      2184      2182      2185      2185      2188      2189      2185      2188      2190
      2185      2188      2191      2186      2185      2187      2186      2185      2188
      2187      2185      2188      2188      2191      2192      2188      2191      2193
      2188      2191      2194      2189      2188      2190      2189      2188      2191
      2190      2188      2191      2191      2194      2195      2191      2194      2196
      2191      2194      2197      2192      2191      2193      2192      2191      2194
      2193      2191      2194      2194      2197      2198      2194      2197      2199
      2194      2197      2200      2195      2194      2196      2195      2194      2197
      2196      2194      2197      2197      2200      2201      2197      2200      2202
      2197      2200      2203      2198      2197      2199      2198      2197      2200
      2199      2197      2200      2200      2203      2204      2200      2203      2205
      2200      2203      2206      2201      2200      2202      2201      2200      2203
      2202      2200      2203      2203      2206      2207      2203      2206      2208
      2203      2206      2209      2204      2203      2205      2204      2203      2206
      2205      2203      2206      2206      2209      2210      2206      2209      2211
      2206      2209      2212      2207      2206      2208      2207      2206      2209
      2208      2206      2209      2210      2209      2211      2210      2209      2212
      2211      2209      2212      2213      2214      2215      2213      2214      2216
      2213      2214      2229      2213      2217      2218      2213      2217      2219
      2213      2217      2220      2213      2221      2222      2213      2221      2223
      2213      2221      2224      2213      2225      2226      2213      2225      2227
      2213      2225      2228      2214      2213      2217      2214      2213      2221
      2214      2213      2225      2214      2229      2230      2214      2229      2231
      2214      2229      2235      2215      2214      2216      2215      2214      2229
      2216      2214      2229      2217      2213      2221      2217      2213      2225
      2218      2217      2219      2218      2217      2220      2219      2217      2220
      2221      2213      2225      2222      2221      2223      2222      2221      2224
      2223      2221      2224      2226      2225      2227      2226      2225      2228
      2227      2225      2228      2229      2235      2232      2230      2229      2231
      2230      2229      2235      2231      2229      2235      2232      2236      2237
      2233      2232      2234      2233      2232      2235      2233      2232      2236
      2234      2232      2235      2234      2232      2236      2235      2232      2236
      2236      2237      2238      2236      2237      2239      2236      2237      2240
      2237      2240      2241      2237      2240      2242      2237      2240      2248
      2238      2237      2239      2238      2237      2240      2239      2237      2240
      2240      2242      2243      2240      2248      2249      2240      2248      2250
      2240      2248      2251      2241      2240      2242      2241      2240      2248
      2242      2240      2248      2242      2243      2244      2242      2243      2245
      2243      2245      2246      2243      2245      2247      2243      2245      2257
      2244      2243      2245      2245      2257      2258      2245      2257      2259
      2245      2257      2260      2246      2245      2247      2246      2245      2257
      2247      2245      2257      2248      2251      2252      2249      2248      2250
      2249      2248      2251      2250      2248      2251      2251      2252      2253
      2251      2252      2254      2252      2254      2255      2252      2254      2256
      2252      2254      2304      2253      2252      2254      2254      2304      2305
      2254      2304      2306      2254      2304      2307      2255      2254      2256
      2255      2254      2304      2256      2254      2304      2257      2260      2261
      2257      2260      2262      2257      2260      2263      2258      2257      2259
      2258      2257      2260      2259      2257      2260      2260      2263      2264
      2260      2263      2265      2260      2263      2266      2261      2260      2262
      2261      2260      2263      2262      2260      2263      2263      2266      2267
      2263      2266      2268      2263      2266      2269      2264      2263      2265
      2264      2263      2266      2265      2263      2266      2266      2269      2270
      2266      2269      2271      2266      2269      2272      2267      2266      2268
      2267      2266      2269      2268      2266      2269      2269      2272      2273
      2269      2272      2274      2269      2272      2275      2270      2269      2271
      2270      2269      2272      2271      2269      2272      2272      2275      2276
      2272      2275      2277      2273      2272      2274      2273      2272      2275
      2274      2272      2275      2275      2277      2278      2275      2277      2279
      2276      2275      2277      2277      2279      2280      2277      2279      2281
      2277      2279      2282      2278      2277      2279      2279      2282      2283
      2279      2282      2284      2279      2282      2285      2280      2279      2281
      2280      2279      2282      2281      2279      2282      2282      2285      2286
      2282      2285      2287      2282      2285      2288      2283      2282      2284
      2283      2282      2285      2284      2282      2285      2285      2288      2289
      2285      2288      2290      2285      2288      2291      2286      2285      2287
      2286      2285      2288      2287      2285      2288      2288      2291      2292
      2288      2291      2293      2288      2291      2294      2289      2288      2290
      2289      2288      2291      2290      2288      2291      2291      2294      2295
      2291      2294      2296      2291      2294      2297      2292      2291      2293
      2292      2291      2294      2293      2291      2294      2294      2297      2298
      2294      2297      2299      2294      2297      2300      2295      2294      2296
      2295      2294      2297      2296      2294      2297      2297      2300      2301
      2297      2300      2302      2297      2300      2303      2298      2297      2299
      2298      2297      2300      2299      2297      2300      2301      2300      2302
      2301      2300      2303      2302      2300      2303      2304      2307      2308
      2304      2307      2309      2304      2307      2310      2305      2304      2306
      2305      2304      2307      2306      2304      2307      2307      2310      2311
      2307      2310      2312      2307      2310      2313      2308      2307      2309
      2308      2307      2310      2309      2307      2310      2310      2313      2314
      2310      2313      2315      2310      2313      2316      2311      2310      2312
      2311      2310      2313      2312      2310      2313      2313      2316      2317
      2313      2316      2318      2313      2316      2319      2314      2313      2315
      2314      2313      2316      2315      2313      2316      2316      2319      2320
      2316      2319      2321      2316      2319      2322      2317      2316      2318
      2317      2316      2319      2318      2316      2319      2319      2322      2323
      2319      2322      2324      2319      2322      2325      2320      2319      2321
      2320      2319      2322      2321      2319      2322      2322      2325      2326
      2322      2325      2327      2322      2325      2328      2323      2322      2324
      2323      2322      2325      2324      2322      2325      2325      2328      2329
      2325      2328      2330      2325      2328      2331      2326      2325      2327
      2326      2325      2328      2327      2325      2328      2328      2331      2332
      2328      2331      2333      2328      2331      2334      2329      2328      2330
      2329      2328      2331      2330      2328      2331      2331      2334      2335
      2331      2334      2336      2331      2334      2337      2332      2331      2333
      2332      2331      2334      2333      2331      2334      2334      2337      2338
      2334      2337      2339      2334      2337      2340      2335      2334      2336
      2335      2334      2337      2336      2334      2337      2337      2340      2341
      2337      2340      2342      2337      2340      2343      2338      2337      2339
      2338      2337      2340      2339      2337      2340      2340      2343      2344
      2340      2343      2345      2340      2343      2346      2341      2340      2342
      2341      2340      2343      2342      2340      2343      2344      2343      2345
      2344      2343      2346      2345      2343      2346      2347      2348      2349
      2347      2348      2350      2347      2348      2363      2347      2351      2352
      2347      2351      2353      2347      2351      2354      2347      2355      2356
      2347      2355      2357      2347      2355      2358      2347      2359      2360
      2347      2359      2361      2347      2359      2362      2348      2347      2351
      2348      2347      2355      2348      2347      2359      2348      2363      2364
      2348      2363      2365      2348      2363      2369      2349      2348      2350
      2349      2348      2363      2350      2348      2363      2351      2347      2355
      2351      2347      2359      2352      2351      2353      2352      2351      2354
      2353      2351      2354      2355      2347      2359      2356      2355      2357
      2356      2355      2358      2357      2355      2358      2360      2359      2361
      2360      2359      2362      2361      2359      2362      2363      2369      2366
      2364      2363      2365      2364      2363      2369      2365      2363      2369
      2366      2370      2371      2367      2366      2368      2367      2366      2369
      2367      2366      2370      2368      2366      2369      2368      2366      2370
      2369      2366      2370      2370      2371      2372      2370      2371      2373
      2370      2371      2374      2371      2374      2375      2371      2374      2376
      2371      2374      2382      2372      2371      2373      2372      2371      2374
      2373      2371      2374      2374      2376      2377      2374      2382      2383
      2374      2382      2384      2374      2382      2385      2375      2374      2376
      2375      2374      2382      2376      2374      2382      2376      2377      2378
      2376      2377      2379      2377      2379      2380      2377      2379      2381
      2377      2379      2391      2378      2377      2379      2379      2391      2392
      2379      2391      2393      2379      2391      2394      2380      2379      2381
      2380      2379      2391      2381      2379      2391      2382      2385      2386
      2383      2382      2384      2383      2382      2385      2384      2382      2385
      2385      2386      2387      2385      2386      2388      2386      2388      2389
      2386      2388      2390      2386      2388      2438      2387      2386      2388
      2388      2438      2439      2388      2438      2440      2388      2438      2441
      2389      2388      2390      2389      2388      2438      2390      2388      2438
      2391      2394      2395      2391      2394      2396      2391      2394      2397
      2392      2391      2393      2392      2391      2394      2393      2391      2394
      2394      2397      2398      2394      2397      2399      2394      2397      2400
      2395      2394      2396      2395      2394      2397      2396      2394      2397
      2397      2400      2401      2397      2400      2402      2397      2400      2403
      2398      2397      2399      2398      2397      2400      2399      2397      2400
      2400      2403      2404      2400      2403      2405      2400      2403      2406
      2401      2400      2402      2401      2400      2403      2402      2400      2403
      2403      2406      2407      2403      2406      2408      2403      2406      2409
      2404      2403      2405      2404      2403      2406      2405      2403      2406
      2406      2409      2410      2406      2409      2411      2407      2406      2408
      2407      2406      2409      2408      2406      2409      2409      2411      2412
      2409      2411      2413      2410      2409      2411      2411      2413      2414
      2411      2413      2415      2411      2413      2416      2412      2411      2413
      2413      2416      2417      2413      2416      2418      2413      2416      2419
      2414      2413      2415      2414      2413      2416      2415      2413      2416
      2416      2419      2420      2416      2419      2421      2416      2419      2422
      2417      2416      2418      2417      2416      2419      2418      2416      2419
      2419      2422      2423      2419      2422      2424      2419      2422      2425
      2420      2419      2421      2420      2419      2422      2421      2419      2422
      2422      2425      2426      2422      2425      2427      2422      2425      2428
      2423      2422      2424      2423      2422      2425      2424      2422      2425
      2425      2428      2429      2425      2428      2430      2425      2428      2431
      2426      2425      2427      2426      2425      2428      2427      2425      2428
      2428      2431      2432      2428      2431      2433      2428      2431      2434
      2429      2428      2430      2429      2428      2431      2430      2428      2431
      2431      2434      2435      2431      2434      2436      2431      2434      2437
      2432      2431      2433      2432      2431      2434      2433      2431      2434
      2435      2434      2436      2435      2434      2437      2436      2434      2437
      2438      2441      2442      2438      2441      2443      2438      2441      2444
      2439      2438      2440      2439      2438      2441      2440      2438      2441
      2441      2444      2445      2441      2444      2446      2441      2444      2447
      2442      2441      2443      2442      2441      2444      2443      2441      2444
      2444      2447      2448      2444      2447      2449      2444      2447      2450
      2445      2444      2446      2445      2444      2447      2446      2444      2447
      2447      2450      2451      2447      2450      2452      2447      2450      2453
      2448      2447      2449      2448      2447      2450      2449      2447      2450
      2450      2453      2454      2450      2453      2455      2450      2453      2456
      2451      2450      2452      2451      2450      2453      2452      2450      2453
      2453      2456      2457      2453      2456      2458      2453      2456      2459
      2454      2453      2455      2454      2453      2456      2455      2453      2456
      2456      2459      2460      2456      2459      2461      2456      2459      2462
      2457      2456      2458      2457      2456      2459      2458      2456      2459
      2459      2462      2463      2459      2462      2464      2459      2462      2465
      2460      2459      2461      2460      2459      2462      2461      2459      2462
      2462      2465      2466      2462      2465      2467      2462      2465      2468
      2463      2462      2464      2463      2462      2465      2464      2462      2465
      2465      2468      2469      2465      2468      2470      2465      2468      2471
      2466      2465      2467      2466      2465      2468      2467      2465      2468
      2468      2471      2472      2468      2471      2473      2468      2471      2474
      2469      2468      2470      2469      2468      2471      2470      2468      2471
      2471      2474      2475      2471      2474      2476      2471      2474      2477
      2472      2471      2473      2472      2471      2474      2473      2471      2474
      2474      2477      2478      2474      2477      2479      2474      2477      2480
      2475      2474      2476      2475      2474      2477      2476      2474      2477
      2478      2477      2479      2478      2477      2480      2479      2477      2480
      2481      2482      2483      2481      2482      2484      2481      2482      2497
      2481      2485      2486      2481      2485      2487      2481      2485      2488
      2481      2489      2490      2481      2489      2491      2481      2489      2492
      2481      2493      2494      2481      2493      2495      2481      2493      2496
      2482      2481      2485      2482      2481      2489      2482      2481      2493
      2482      2497      2498      2482      2497      2499      2482      2497      2503
      2483      2482      2484      2483      2482      2497      2484      2482      2497
      2485      2481      2489      2485      2481      2493      2486      2485      2487
      2486      2485      2488      2487      2485      2488      2489      2481      2493
      2490      2489      2491      2490      2489      2492      2491      2489      2492
      2494      2493      2495      2494      2493      2496      2495      2493      2496
      2497      2503      2500      2498      2497      2499      2498      2497      2503
      2499      2497      2503      2500      2504      2505      2501      2500      2502
      2501      2500      2503      2501      2500      2504      2502      2500      2503
      2502      2500      2504      2503      2500      2504      2504      2505      2506
      2504      2505      2507      2504      2505      2508      2505      2508      2509
      2505      2508      2510      2505      2508      2516      2506      2505      2507
      2506      2505      2508      2507      2505      2508      2508      2510      2511
      2508      2516      2517      2508      2516      2518      2508      2516      2519
      2509      2508      2510      2509      2508      2516      2510      2508      2516
      2510      2511      2512      2510      2511      2513      2511      2513      2514
      2511      2513      2515      2511      2513      2525      2512      2511      2513
      2513      2525      2526      2513      2525      2527      2513      2525      2528
      2514      2513      2515      2514      2513      2525      2515      2513      2525
      2516      2519      2520      2517      2516      2518      2517      2516      2519
      2518      2516      2519      2519      2520      2521      2519      2520      2522
      2520      2522      2523      2520      2522      2524      2520      2522      2572
      2521      2520      2522      2522      2572      2573      2522      2572      2574
      2522      2572      2575      2523      2522      2524      2523      2522      2572
      2524      2522      2572      2525      2528      2529      2525      2528      2530
      2525      2528      2531      2526      2525      2527      2526      2525      2528
      2527      2525      2528      2528      2531      2532      2528      2531      2533
      2528      2531      2534      2529      2528      2530      2529      2528      2531
      2530      2528      2531      2531      2534      2535      2531      2534      2536
      2531      2534      2537      2532      2531      2533      2532      2531      2534
      2533      2531      2534      2534      2537      2538      2534      2537      2539
      2534      2537      2540      2535      2534      2536      2535      2534      2537
      2536      2534      2537      2537      2540      2541      2537      2540      2542
      2537      2540      2543      2538      2537      2539      2538      2537      2540
      2539      2537      2540      2540      2543      2544      2540      2543      2545
      2541      2540      2542      2541      2540      2543      2542      2540      2543
      2543      2545      2546      2543      2545      2547      2544      2543      2545
      2545      2547      2548      2545      2547      2549      2545      2547      2550
      2546      2545      2547      2547      2550      2551      2547      2550      2552
      2547      2550      2553      2548      2547      2549      2548      2547      2550
      2549      2547      2550      2550      2553      2554      2550      2553      2555
      2550      2553      2556      2551      2550      2552      2551      2550      2553
      2552      2550      2553      2553      2556      2557      2553      2556      2558
      2553      2556      2559      2554      2553      2555      2554      2553      2556
      2555      2553      2556      2556      2559      2560      2556      2559      2561
      2556      2559      2562      2557      2556      2558      2557      2556      2559
      2558      2556      2559      2559      2562      2563      2559      2562      2564
      2559      2562      2565      2560      2559      2561      2560      2559      2562
      2561      2559      2562      2562      2565      2566      2562      2565      2567
      2562      2565      2568      2563      2562      2564      2563      2562      2565
      2564      2562      2565      2565      2568      2569      2565      2568      2570
      2565      2568      2571      2566      2565      2567      2566      2565      2568
      2567      2565      2568      2569      2568      2570      2569      2568      2571
      2570      2568      2571      2572      2575      2576      2572      2575      2577
      2572      2575      2578      2573      2572      2574      2573      2572      2575
      2574      2572      2575      2575      2578      2579      2575      2578      2580
      2575      2578      2581      2576      2575      2577      2576      2575      2578
      2577      2575      2578      2578      2581      2582      2578      2581      2583
      2578      2581      2584      2579      2578      2580      2579      2578      2581
      2580      2578      2581      2581      2584      2585      2581      2584      2586
      2581      2584      2587      2582      2581      2583      2582      2581      2584
      2583      2581      2584      2584      2587      2588      2584      2587      2589
      2584      2587      2590      2585      2584      2586      2585      2584      2587
      2586      2584      2587      2587      2590      2591      2587      2590      2592
      2587      2590      2593      2588      2587      2589      2588      2587      2590
      2589      2587      2590      2590      2593      2594      2590      2593      2595
      2590      2593      2596      2591      2590      2592      2591      2590      2593
      2592      2590      2593      2593      2596      2597      2593      2596      2598
      2593      2596      2599      2594      2593      2595      2594      2593      2596
      2595      2593      2596      2596      2599      2600      2596      2599      2601
      2596      2599      2602      2597      2596      2598      2597      2596      2599
      2598      2596      2599      2599      2602      2603      2599      2602      2604
      2599      2602      2605      2600      2599      2601      2600      2599      2602
      2601      2599      2602      2602      2605      2606      2602      2605      2607
      2602      2605      2608      2603      2602      2604      2603      2602      2605
      2604      2602      2605      2605      2608      2609      2605      2608      2610
      2605      2608      2611      2606      2605      2607      2606      2605      2608
      2607      2605      2608      2608      2611      2612      2608      2611      2613
      2608      2611      2614      2609      2608      2610      2609      2608      2611
      2610      2608      2611      2612      2611      2613      2612      2611      2614
      2613      2611      2614      2615      2616      2617      2615      2616      2618
      2615      2616      2631      2615      2619      2620      2615      2619      2621
      2615      2619      2622      2615      2623      2624      2615      2623      2625
      2615      2623      2626      2615      2627      2628      2615      2627      2629
      2615      2627      2630      2616      2615      2619      2616      2615      2623
      2616      2615      2627      2616      2631      2632      2616      2631      2633
      2616      2631      2637      2617      2616      2618      2617      2616      2631
      2618      2616      2631      2619      2615      2623      2619      2615      2627
      2620      2619      2621      2620      2619      2622      2621      2619      2622
      2623      2615      2627      2624      2623      2625      2624      2623      2626
      2625      2623      2626      2628      2627      2629      2628      2627      2630
      2629      2627      2630      2631      2637      2634      2632      2631      2633
      2632      2631      2637      2633      2631      2637      2634      2638      2639
      2635      2634      2636      2635      2634      2637      2635      2634      2638
      2636      2634      2637      2636      2634      2638      2637      2634      2638
      2638      2639      2640      2638      2639      2641      2638      2639      2642
      2639      2642      2643      2639      2642      2644      2639      2642      2650
      2640      2639      2641      2640      2639      2642      2641      2639      2642
      2642      2644      2645      2642      2650      2651      2642      2650      2652
      2642      2650      2653      2643      2642      2644      2643      2642      2650
      2644      2642      2650      2644      2645      2646      2644      2645      2647
      2645      2647      2648      2645      2647      2649      2645      2647      2659
      2646      2645      2647      2647      2659      2660      2647      2659      2661
      2647      2659      2662      2648      2647      2649      2648      2647      2659
      2649      2647      2659      2650      2653      2654      2651      2650      2652
      2651      2650      2653      2652      2650      2653      2653      2654      2655
      2653      2654      2656      2654      2656      2657      2654      2656      2658
      2654      2656      2706      2655      2654      2656      2656      2706      2707
      2656      2706      2708      2656      2706      2709      2657      2656      2658
      2657      2656      2706      2658      2656      2706      2659      2662      2663
      2659      2662      2664      2659      2662      2665      2660      2659      2661
      2660      2659      2662      2661      2659      2662      2662      2665      2666
      2662      2665      2667      2662      2665      2668      2663      2662      2664
      2663      2662      2665      2664      2662      2665      2665      2668      2669
      2665      2668      2670      2665      2668      2671      2666      2665      2667
      2666      2665      2668      2667      2665      2668      2668      2671      2672
      2668      2671      2673      2668      2671      2674      2669      2668      2670
      2669      2668      2671      2670      2668      2671      2671      2674      2675
      2671      2674      2676      2671      2674      2677      2672      2671      2673
      2672      2671      2674      2673      2671      2674      2674      2677      2678
      2674      2677      2679      2675      2674      2676      2675      2674      2677
      2676      2674      2677      2677      2679      2680      2677      2679      2681
      2678      2677      2679      2679      2681      2682      2679      2681      2683
      2679      2681      2684      2680      2679      2681      2681      2684      2685
      2681      2684      2686      2681      2684      2687      2682      2681      2683
      2682      2681      2684      2683      2681      2684      2684      2687      2688
      2684      2687      2689      2684      2687      2690      2685      2684      2686
      2685      2684      2687      2686      2684      2687      2687      2690      2691
      2687      2690      2692      2687      2690      2693      2688      2687      2689
      2688      2687      2690      2689      2687      2690      2690      2693      2694
      2690      2693      2695      2690      2693      2696      2691      2690      2692
      2691      2690      2693      2692      2690      2693      2693      2696      2697
      2693      2696      2698      2693      2696      2699      2694      2693      2695
      2694      2693      2696      2695      2693      2696      2696      2699      2700
      2696      2699      2701      2696      2699      2702      2697      2696      2698
      2697      2696      2699      2698      2696      2699      2699      2702      2703
      2699      2702      2704      2699      2702      2705      2700      2699      2701
      2700      2699      2702      2701      2699      2702      2703      2702      2704
      2703      2702      2705      2704      2702      2705      2706      2709      2710
      2706      2709      2711      2706      2709      2712      2707      2706      2708
      2707      2706      2709      2708      2706      2709      2709      2712      2713
      2709      2712      2714      2709      2712      2715      2710      2709      2711
      2710      2709      2712      2711      2709      2712      2712      2715      2716
      2712      2715      2717      2712      2715      2718      2713      2712      2714
      2713      2712      2715      2714      2712      2715      2715      2718      2719
      2715      2718      2720      2715      2718      2721      2716      2715      2717
      2716      2715      2718      2717      2715      2718      2718      2721      2722
      2718      2721      2723      2718      2721      2724      2719      2718      2720
      2719      2718      2721      2720      2718      2721      2721      2724      2725
      2721      2724      2726      2721      2724      2727      2722      2721      2723
      2722      2721      2724      2723      2721      2724      2724      2727      2728
      2724      2727      2729      2724      2727      2730      2725      2724      2726
      2725      2724      2727      2726      2724      2727      2727      2730      2731
      2727      2730      2732      2727      2730      2733      2728      2727      2729
      2728      2727      2730      2729      2727      2730      2730      2733      2734
      2730      2733      2735      2730      2733      2736      2731      2730      2732
      2731      2730      2733      2732      2730      2733      2733      2736      2737
      2733      2736      2738      2733      2736      2739      2734      2733      2735
      2734      2733      2736      2735      2733      2736      2736      2739      2740
      2736      2739      2741      2736      2739      2742      2737      2736      2738
      2737      2736      2739      2738      2736      2739      2739      2742      2743
      2739      2742      2744      2739      2742      2745      2740      2739      2741
      2740      2739      2742      2741      2739      2742      2742      2745      2746
      2742      2745      2747      2742      2745      2748      2743      2742      2744
      2743      2742      2745      2744      2742      2745      2746      2745      2747
      2746      2745      2748      2747      2745      2748      2749      2750      2751
      2749      2750      2752      2749      2750      2765      2749      2753      2754
      2749      2753      2755      2749      2753      2756      2749      2757      2758
      2749      2757      2759      2749      2757      2760      2749      2761      2762
      2749      2761      2763      2749      2761      2764      2750      2749      2753
      2750      2749      2757      2750      2749      2761      2750      2765      2766
      2750      2765      2767      2750      2765      2771      2751      2750      2752
      2751      2750      2765      2752      2750      2765      2753      2749      2757
      2753      2749      2761      2754      2753      2755      2754      2753      2756
      2755      2753      2756      2757      2749      2761      2758      2757      2759
      2758      2757      2760      2759      2757      2760      2762      2761      2763
      2762      2761      2764      2763      2761      2764      2765      2771      2768
      2766      2765      2767      2766      2765      2771      2767      2765      2771
      2768      2772      2773      2769      2768      2770      2769      2768      2771
      2769      2768      2772      2770      2768      2771      2770      2768      2772
      2771      2768      2772      2772      2773      2774      2772      2773      2775
      2772      2773      2776      2773      2776      2777      2773      2776      2778
      2773      2776      2784      2774      2773      2775      2774      2773      2776
      2775      2773      2776      2776      2778      2779      2776      2784      2785
      2776      2784      2786      2776      2784      2787      2777      2776      2778
      2777      2776      2784      2778      2776      2784      2778      2779      2780
      2778      2779      2781      2779      2781      2782      2779      2781      2783
      2779      2781      2793      2780      2779      2781      2781      2793      2794
      2781      2793      2795      2781      2793      2796      2782      2781      2783
      2782      2781      2793      2783      2781      2793      2784      2787      2788
      2785      2784      2786      2785      2784      2787      2786      2784      2787
      2787      2788      2789      2787      2788      2790      2788      2790      2791
      2788      2790      2792      2788      2790      2840      2789      2788      2790
      2790      2840      2841      2790      2840      2842      2790      2840      2843
      2791      2790      2792      2791      2790      2840      2792      2790      2840
      2793      2796      2797      2793      2796      2798      2793      2796      2799
      2794      2793      2795      2794      2793      2796      2795      2793      2796
      2796      2799      2800      2796      2799      2801      2796      2799      2802
      2797      2796      2798      2797      2796      2799      2798      2796      2799
      2799      2802      2803      2799      2802      2804      2799      2802      2805
      2800      2799      2801      2800      2799      2802      2801      2799      2802
      2802      2805      2806      2802      2805      2807      2802      2805      2808
      2803      2802      2804      2803      2802      2805      2804      2802      2805
      2805      2808      2809      2805      2808      2810      2805      2808      2811
      2806      2805      2807      2806      2805      2808      2807      2805      2808
      2808      2811      2812      2808      2811      2813      2809      2808      2810
      2809      2808      2811      2810      2808      2811      2811      2813      2814
      2811      2813      2815      2812      2811      2813      2813      2815      2816
      2813      2815      2817      2813      2815      2818      2814      2813      2815
      2815      2818      2819      2815      2818      2820      2815      2818      2821
      2816      2815      2817      2816      2815      2818      2817      2815      2818
      2818      2821      2822      2818      2821      2823      2818      2821      2824
      2819      2818      2820      2819      2818      2821      2820      2818      2821
      2821      2824      2825      2821      2824      2826      2821      2824      2827
      2822      2821      2823      2822      2821      2824      2823      2821      2824
      2824      2827      2828      2824      2827      2829      2824      2827      2830
      2825      2824      2826      2825      2824      2827      2826      2824      2827
      2827      2830      2831      2827      2830      2832      2827      2830      2833
      2828      2827      2829      2828      2827      2830      2829      2827      2830
      2830      2833      2834      2830      2833      2835      2830      2833      2836
      2831      2830      2832      2831      2830      2833      2832      2830      2833
      2833      2836      2837      2833      2836      2838      2833      2836      2839
      2834      2833      2835      2834      2833      2836      2835      2833      2836
      2837      2836      2838      2837      2836      2839      2838      2836      2839
      2840      2843      2844      2840      2843      2845      2840      2843      2846
      2841      2840      2842      2841      2840      2843      2842      2840      2843
      2843      2846      2847      2843      2846      2848      2843      2846      2849
      2844      2843      2845      2844      2843      2846      2845      2843      2846
      2846      2849      2850      2846      2849      2851      2846      2849      2852
      2847      2846      2848      2847      2846      2849      2848      2846      2849
      2849      2852      2853      2849      2852      2854      2849      2852      2855
      2850      2849      2851      2850      2849      2852      2851      2849      2852
      2852      2855      2856      2852      2855      2857      2852      2855      2858
      2853      2852      2854      2853      2852      2855      2854      2852      2855
      2855      2858      2859      2855      2858      2860      2855      2858      2861
      2856      2855      2857      2856      2855      2858      2857      2855      2858
      2858      2861      2862      2858      2861      2863      2858      2861      2864
      2859      2858      2860      2859      2858      2861      2860      2858      2861
      2861      2864      2865      2861      2864      2866      2861      2864      2867
      2862      2861      2863      2862      2861      2864      2863      2861      2864
      2864      2867      2868      2864      2867      2869      2864      2867      2870
      2865      2864      2866      2865      2864      2867      2866      2864      2867
      2867      2870      2871      2867      2870      2872      2867      2870      2873
      2868      2867      2869      2868      2867      2870      2869      2867      2870
      2870      2873      2874      2870      2873      2875      2870      2873      2876
      2871      2870      2872      2871      2870      2873      2872      2870      2873
      2873      2876      2877      2873      2876      2878      2873      2876      2879
      2874      2873      2875      2874      2873      2876      2875      2873      2876
      2876      2879      2880      2876      2879      2881      2876      2879      2882
      2877      2876      2878      2877      2876      2879      2878      2876      2879
      2880      2879      2881      2880      2879      2882      2881      2879      2882
      2883      2884      2885      2883      2884      2886      2883      2884      2899
      2883      2887      2888      2883      2887      2889      2883      2887      2890
      2883      2891      2892      2883      2891      2893      2883      2891      2894
      2883      2895      2896      2883      2895      2897      2883      2895      2898
      2884      2883      2887      2884      2883      2891      2884      2883      2895
      2884      2899      2900      2884      2899      2901      2884      2899      2905
      2885      2884      2886      2885      2884      2899      2886      2884      2899
      2887      2883      2891      2887      2883      2895      2888      2887      2889
      2888      2887      2890      2889      2887      2890      2891      2883      2895
      2892      2891      2893      2892      2891      2894      2893      2891      2894
      2896      2895      2897      2896      2895      2898      2897      2895      2898
      2899      2905      2902      2900      2899      2901      2900      2899      2905
      2901      2899      2905      2902      2906      2907      2903      2902      2904
      2903      2902      2905      2903      2902      2906      2904      2902      2905
      2904      2902      2906      2905      2902      2906      2906      2907      2908
      2906      2907      2909      2906      2907      2910      2907      2910      2911
      2907      2910      2912      2907      2910      2918      2908      2907      2909
      2908      2907      2910      2909      2907      2910      2910      2912      2913
      2910      2918      2919      2910      2918      2920      2910      2918      2921
      2911      2910      2912      2911      2910      2918      2912      2910      2918
      2912      2913      2914      2912      2913      2915      2913      2915      2916
      2913      2915      2917      2913      2915      2927      2914      2913      2915
      2915      2927      2928      2915      2927      2929      2915      2927      2930
      2916      2915      2917      2916      2915      2927      2917      2915      2927
      2918      2921      2922      2919      2918      2920      2919      2918      2921
      2920      2918      2921      2921      2922      2923      2921      2922      2924
      2922      2924      2925      2922      2924      2926      2922      2924      2974
      2923      2922      2924      2924      2974      2975      2924      2974      2976
      2924      2974      2977      2925      2924      2926      2925      2924      2974
      2926      2924      2974      2927      2930      2931      2927      2930      2932
      2927      2930      2933      2928      2927      2929      2928      2927      2930
      2929      2927      2930      2930      2933      2934      2930      2933      2935
      2930      2933      2936      2931      2930      2932      2931      2930      2933
      2932      2930      2933      2933      2936      2937      2933      2936      2938
      2933      2936      2939      2934      2933      2935      2934      2933      2936
      2935      2933      2936      2936      2939      2940      2936      2939      2941
      2936      2939      2942      2937      2936      2938      2937      2936      2939
      2938      2936      2939      2939      2942      2943      2939      2942      2944
      2939      2942      2945      2940      2939      2941      2940      2939      2942
      2941      2939      2942      2942      2945      2946      2942      2945      2947
      2943      2942      2944      2943      2942      2945      2944      2942      2945
      2945      2947      2948      2945      2947      2949      2946      2945      2947
      2947      2949      2950      2947      2949      2951      2947      2949      2952
      2948      2947      2949      2949      2952      2953      2949      2952      2954
      2949      2952      2955      2950      2949      2951      2950      2949      2952
      2951      2949      2952      2952      2955      2956      2952      2955      2957
      2952      2955      2958      2953      2952      2954      2953      2952      2955
      2954      2952      2955      2955      2958      2959      2955      2958      2960
      2955      2958      2961      2956      2955      2957      2956      2955      2958
      2957      2955      2958      2958      2961      2962      2958      2961      2963
      2958      2961      2964      2959      2958      2960      2959      2958      2961
      2960      2958      2961      2961      2964      2965      2961      2964      2966
      2961      2964      2967      2962      2961      2963      2962      2961      2964
      2963      2961      2964      2964      2967      2968      2964      2967      2969
      2964      2967      2970      2965      2964      2966      2965      2964      2967
      2966      2964      2967      2967      2970      2971      2967      2970      2972
      2967      2970      2973      2968      2967      2969      2968      2967      2970
      2969      2967      2970      2971      2970      2972      2971      2970      2973
      2972      2970      2973      2974      2977      2978      2974      2977      2979
      2974      2977      2980      2975      2974      2976      2975      2974      2977
      2976      2974      2977      2977      2980      2981      2977      2980      2982
      2977      2980      2983      2978      2977      2979      2978      2977      2980
      2979      2977      2980      2980      2983      2984      2980      2983      2985
      2980      2983      2986      2981      2980      2982      2981      2980      2983
      2982      2980      2983      2983      2986      2987      2983      2986      2988
      2983      2986      2989      2984      2983      2985      2984      2983      2986
      2985      2983      2986      2986      2989      2990      2986      2989      2991
      2986      2989      2992      2987      2986      2988      2987      2986      2989
      2988      2986      2989      2989      2992      2993      2989      2992      2994
      2989      2992      2995      2990      2989      2991      2990      2989      2992
      2991      2989      2992      2992      2995      2996      2992      2995      2997
      2992      2995      2998      2993      2992      2994      2993      2992      2995
      2994      2992      2995      2995      2998      2999      2995      2998      3000
      2995      2998      3001      2996      2995      2997      2996      2995      2998
      2997      2995      2998      2998      3001      3002      2998      3001      3003
      2998      3001      3004      2999      2998      3000      2999      2998      3001
      3000      2998      3001      3001      3004      3005      3001      3004      3006
      3001      3004      3007      3002      3001      3003      3002      3001      3004
      3003      3001      3004      3004      3007      3008      3004      3007      3009
      3004      3007      3010      3005      3004      3006      3005      3004      3007
      3006      3004      3007      3007      3010      3011      3007      3010      3012
      3007      3010      3013      3008      3007      3009      3008      3007      3010
      3009      3007      3010      3010      3013      3014      3010      3013      3015
      3010      3013      3016      3011      3010      3012      3011      3010      3013
      3012      3010      3013      3014      3013      3015      3014      3013      3016
      3015      3013      3016      3017      3018      3019      3017      3018      3020
      3017      3018      3033      3017      3021      3022      3017      3021      3023
      3017      3021      3024      3017      3025      3026      3017      3025      3027
      3017      3025      3028      3017      3029      3030      3017      3029      3031
      3017      3029      3032      3018      3017      3021      3018      3017      3025
      3018      3017      3029      3018      3033      3034      3018      3033      3035
      3018      3033      3039      3019      3018      3020      3019      3018      3033
      3020      3018      3033      3021      3017      3025      3021      3017      3029
      3022      3021      3023      3022      3021      3024      3023      3021      3024
      3025      3017      3029      3026      3025      3027      3026      3025      3028
      3027      3025      3028      3030      3029      3031      3030      3029      3032
      3031      3029      3032      3033      3039      3036      3034      3033      3035
      3034      3033      3039      3035      3033      3039      3036      3040      3041
      3037      3036      3038      3037      3036      3039      3037      3036      3040
      3038      3036      3039      3038      3036      3040      3039      3036      3040
      3040      3041      3042      3040      3041      3043      3040      3041      3044
      3041      3044      3045      3041      3044      3046      3041      3044      3052
      3042      3041      3043      3042      3041      3044      3043      3041      3044
      3044      3046      3047      3044      3052      3053      3044      3052      3054
      3044      3052      3055      3045      3044      3046      3045      3044      3052
      3046      3044      3052      3046      3047      3048      3046      3047      3049
      3047      3049      3050      3047      3049      3051      3047      3049      3061
      3048      3047      3049      3049      3061      3062      3049      3061      3063
      3049      3061      3064      3050      3049      3051      3050      3049      3061
      3051      3049      3061      3052      3055      3056      3053      3052      3054
      3053      3052      3055      3054      3052      3055      3055      3056      3057
      3055      3056      3058      3056      3058      3059      3056      3058      3060
      3056      3058      3108      3057      3056      3058      3058      3108      3109
      3058      3108      3110      3058      3108      3111      3059      3058      3060
      3059      3058      3108      3060      3058      3108      3061      3064      3065
      3061      3064      3066      3061      3064      3067      3062      3061      3063
      3062      3061      3064      3063      3061      3064      3064      3067      3068
      3064      3067      3069      3064      3067      3070      3065      3064      3066
      3065      3064      3067      3066      3064      3067      3067      3070      3071
      3067      3070      3072      3067      3070      3073      3068      3067      3069
      3068      3067      3070      3069      3067      3070      3070      3073      3074
      3070      3073      3075      3070      3073      3076      3071      3070      3072
      3071      3070      3073      3072      3070      3073      3073      3076      3077
      3073      3076      3078      3073      3076      3079      3074      3073      3075
      3074      3073      3076      3075      3073      3076      3076      3079      3080
      3076      3079      3081      3077      3076      3078      3077      3076      3079
      3078      3076      3079      3079      3081      3082      3079      3081      3083
      3080      3079      3081      3081      3083      3084      3081      3083      3085
      3081      3083      3086      3082      3081      3083      3083      3086      3087
      3083      3086      3088      3083      3086      3089      3084      3083      3085
      3084      3083      3086      3085      3083      3086      3086      3089      3090
      3086      3089      3091      3086      3089      3092      3087      3086      3088
      3087      3086      3089      3088      3086      3089      3089      3092      3093
      3089      3092      3094      3089      3092      3095      3090      3089      3091
      3090      3089      3092      3091      3089      3092      3092      3095      3096
      3092      3095      3097      3092      3095      3098      3093      3092      3094
      3093      3092      3095      3094      3092      3095      3095      3098      3099
      3095      3098      3100      3095      3098      3101      3096      3095      3097
      3096      3095      3098      3097      3095      3098      3098      3101      3102
      3098      3101      3103      3098      3101      3104      3099      3098      3100
      3099      3098      3101      3100      3098      3101      3101      3104      3105
      3101      3104      3106      3101      3104      3107      3102      3101      3103
      3102      3101      3104      3103      3101      3104      3105      3104      3106
      3105      3104      3107      3106      3104      3107      3108      3111      3112
      3108      3111      3113      3108      3111      3114      3109      3108      3110
      3109      3108      3111      3110      3108      3111      3111      3114      3115
      3111      3114      3116      3111      3114      3117      3112      3111      3113
      3112      3111      3114      3113      3111      3114      3114      3117      3118
      3114      3117      3119      3114      3117      3120      3115      3114      3116
      3115      3114      3117      3116      3114      3117      3117      3120      3121
      3117      3120      3122      3117      3120      3123      3118      3117      3119
      3118      3117      3120      3119      3117      3120      3120      3123      3124
      3120      3123      3125      3120      3123      3126      3121      3120      3122
      3121      3120      3123      3122      3120      3123      3123      3126      3127
      3123      3126      3128      3123      3126      3129      3124      3123      3125
      3124      3123      3126      3125      3123      3126      3126      3129      3130
      3126      3129      3131      3126      3129      3132      3127      3126      3128
      3127      3126      3129      3128      3126      3129      3129      3132      3133
      3129      3132      3134      3129      3132      3135      3130      3129      3131
      3130      3129      3132      3131      3129      3132      3132      3135      3136
      3132      3135      3137      3132      3135      3138      3133      3132      3134
      3133      3132      3135      3134      3132      3135      3135      3138      3139
      3135      3138      3140      3135      3138      3141      3136      3135      3137
      3136      3135      3138      3137      3135      3138      3138      3141      3142
      3138      3141      3143      3138      3141      3144      3139      3138      3140
      3139      3138      3141      3140      3138      3141      3141      3144      3145
      3141      3144      3146      3141      3144      3147      3142      3141      3143
      3142      3141      3144      3143      3141      3144      3144      3147      3148
      3144      3147      3149      3144      3147      3150      3145      3144      3146
      3145      3144      3147      3146      3144      3147      3148      3147      3149
      3148      3147      3150      3149      3147      3150      3151      3152      3153
      3151      3152      3154      3151      3152      3167      3151      3155      3156
      3151      3155      3157      3151      3155      3158      3151      3159      3160
      3151      3159      3161      3151      3159      3162      3151      3163      3164
      3151      3163      3165      3151      3163      3166      3152      3151      3155
      3152      3151      3159      3152      3151      3163      3152      3167      3168
      3152      3167      3169      3152      3167      3173      3153      3152      3154
      3153      3152      3167      3154      3152      3167      3155      3151      3159
      3155      3151      3163      3156      3155      3157      3156      3155      3158
      3157      3155      3158      3159      3151      3163      3160      3159      3161
      3160      3159      3162      3161      3159      3162      3164      3163      3165
      3164      3163      3166      3165      3163      3166      3167      3173      3170
      3168      3167      3169      3168      3167      3173      3169      3167      3173
      3170      3174      3175      3171      3170      3172      3171      3170      3173
      3171      3170      3174      3172      3170      3173      3172      3170      3174
      3173      3170      3174      3174      3175      3176      3174      3175      3177
      3174      3175      3178      3175      3178      3179      3175      3178      3180
      3175      3178      3186      3176      3175      3177      3176      3175      3178
      3177      3175      3178      3178      3180      3181      3178      3186      3187
      3178      3186      3188      3178      3186      3189      3179      3178      3180
      3179      3178      3186      3180      3178      3186      3180      3181      3182
      3180      3181      3183      3181      3183      3184      3181      3183      3185
      3181      3183      3195      3182      3181      3183      3183      3195      3196
      3183      3195      3197      3183      3195      3198      3184      3183      3185
      3184      3183      3195      3185      3183      3195      3186      3189      3190
      3187      3186      3188      3187      3186      3189      3188      3186      3189
      3189      3190      3191      3189      3190      3192      3190      3192      3193
      3190      3192      3194      3190      3192      3242      3191      3190      3192
      3192      3242      3243      3192      3242      3244      3192      3242      3245
      3193      3192      3194      3193      3192      3242      3194      3192      3242
      3195      3198      3199      3195      3198      3200      3195      3198      3201
      3196      3195      3197      3196      3195      3198      3197      3195      3198
      3198      3201      3202      3198      3201      3203      3198      3201      3204
      3199      3198      3200      3199      3198      3201      3200      3198      3201
      3201      3204      3205      3201      3204      3206      3201      3204      3207
      3202      3201      3203      3202      3201      3204      3203      3201      3204
      3204      3207      3208      3204      3207      3209      3204      3207      3210
      3205      3204      3206      3205      3204      3207      3206      3204      3207
      3207      3210      3211      3207      3210      3212      3207      3210      3213
      3208      3207      3209      3208      3207      3210      3209      3207      3210
      3210      3213      3214      3210      3213      3215      3211      3210      3212
      3211      3210      3213      3212      3210      3213      3213      3215      3216
      3213      3215      3217      3214      3213      3215      3215      3217      3218
      3215      3217      3219      3215      3217      3220      3216      3215      3217
      3217      3220      3221      3217      3220      3222      3217      3220      3223
      3218      3217      3219      3218      3217      3220      3219      3217      3220
      3220      3223      3224      3220      3223      3225      3220      3223      3226
      3221      3220      3222      3221      3220      3223      3222      3220      3223
      3223      3226      3227      3223      3226      3228      3223      3226      3229
      3224      3223      3225      3224      3223      3226      3225      3223      3226
      3226      3229      3230      3226      3229      3231      3226      3229      3232
      3227      3226      3228      3227      3226      3229      3228      3226      3229
      3229      3232      3233      3229      3232      3234      3229      3232      3235
      3230      3229      3231      3230      3229      3232      3231      3229      3232
      3232      3235      3236      3232      3235      3237      3232      3235      3238
      3233      3232      3234      3233      3232      3235      3234      3232      3235
      3235      3238      3239      3235      3238      3240      3235      3238      3241
      3236      3235      3237      3236      3235      3238      3237      3235      3238
      3239      3238      3240      3239      3238      3241      3240      3238      3241
      3242      3245      3246      3242      3245      3247      3242      3245      3248
      3243      3242      3244      3243      3242      3245      3244      3242      3245
      3245      3248      3249      3245      3248      3250      3245      3248      3251
      3246      3245      3247      3246      3245      3248      3247      3245      3248
      3248      3251      3252      3248      3251      3253      3248      3251      3254
      3249      3248      3250      3249      3248      3251      3250      3248      3251
      3251      3254      3255      3251      3254      3256      3251      3254      3257
      3252      3251      3253      3252      3251      3254      3253      3251      3254
      3254      3257      3258      3254      3257      3259      3254      3257      3260
      3255      3254      3256      3255      3254      3257      3256      3254      3257
      3257      3260      3261      3257      3260      3262      3257      3260      3263
      3258      3257      3259      3258      3257      3260      3259      3257      3260
      3260      3263      3264      3260      3263      3265      3260      3263      3266
      3261      3260      3262      3261      3260      3263      3262      3260      3263
      3263      3266      3267      3263      3266      3268      3263      3266      3269
      3264      3263      3265      3264      3263      3266      3265      3263      3266
      3266      3269      3270      3266      3269      3271      3266      3269      3272
      3267      3266      3268      3267      3266      3269      3268      3266      3269
      3269      3272      3273      3269      3272      3274      3269      3272      3275
      3270      3269      3271      3270      3269      3272      3271      3269      3272
      3272      3275      3276      3272      3275      3277      3272      3275      3278
      3273      3272      3274      3273      3272      3275      3274      3272      3275
      3275      3278      3279      3275      3278      3280      3275      3278      3281
      3276      3275      3277      3276      3275      3278      3277      3275      3278
      3278      3281      3282      3278      3281      3283      3278      3281      3284
      3279      3278      3280      3279      3278      3281      3280      3278      3281
      3282      3281      3283      3282      3281      3284      3283      3281      3284
      3285      3286      3287      3285      3286      3288      3285      3286      3301
      3285      3289      3290      3285      3289      3291      3285      3289      3292
      3285      3293      3294      3285      3293      3295      3285      3293      3296
      3285      3297      3298      3285      3297      3299      3285      3297      3300
      3286      3285      3289      3286      3285      3293      3286      3285      3297
      3286      3301      3302      3286      3301      3303      3286      3301      3307
      3287      3286      3288      3287      3286      3301      3288      3286      3301
      3289      3285      3293      3289      3285      3297      3290      3289      3291
      3290      3289      3292      3291      3289      3292      3293      3285      3297
      3294      3293      3295      3294      3293      3296      3295      3293      3296
      3298      3297      3299      3298      3297      3300      3299      3297      3300
      3301      3307      3304      3302      3301      3303      3302      3301      3307
      3303      3301      3307      3304      3308      3309      3305      3304      3306
      3305      3304      3307      3305      3304      3308      3306      3304      3307
      3306      3304      3308      3307      3304      3308      3308      3309      3310
      3308      3309      3311      3308      3309      3312      3309      3312      3313
      3309      3312      3314      3309      3312      3320      3310      3309      3311
      3310      3309      3312      3311      3309      3312      3312      3314      3315
      3312      3320      3321      3312      3320      3322      3312      3320      3323
      3313      3312      3314      3313      3312      3320      3314      3312      3320
      3314      3315      3316      3314      3315      3317      3315      3317      3318
      3315      3317      3319      3315      3317      3329      3316      3315      3317
      3317      3329      3330      3317      3329      3331      3317      3329      3332
      3318      3317      3319      3318      3317      3329      3319      3317      3329
      3320      3323      3324      3321      3320      3322      3321      3320      3323
      3322      3320      3323      3323      3324      3325      3323      3324      3326
      3324      3326      3327      3324      3326      3328      3324      3326      3376
      3325      3324      3326      3326      3376      3377      3326      3376      3378
      3326      3376      3379      3327      3326      3328      3327      3326      3376
      3328      3326      3376      3329      3332      3333      3329      3332      3334
      3329      3332      3335      3330      3329      3331      3330      3329      3332
      3331      3329      3332      3332      3335      3336      3332      3335      3337
      3332      3335      3338      3333      3332      3334      3333      3332      3335
      3334      3332      3335      3335      3338      3339      3335      3338      3340
      3335      3338      3341      3336      3335      3337      3336      3335      3338
      3337      3335      3338      3338      3341      3342      3338      3341      3343
      3338      3341      3344      3339      3338      3340      3339      3338      3341
      3340      3338      3341      3341      3344      3345      3341      3344      3346
      3341      3344      3347      3342      3341      3343      3342      3341      3344
      3343      3341      3344      3344      3347      3348      3344      3347      3349
      3345      3344      3346      3345      3344      3347      3346      3344      3347
      3347      3349      3350      3347      3349      3351      3348      3347      3349
      3349      3351      3352      3349      3351      3353      3349      3351      3354
      3350      3349      3351      3351      3354      3355      3351      3354      3356
      3351      3354      3357      3352      3351      3353      3352      3351      3354
      3353      3351      3354      3354      3357      3358      3354      3357      3359
      3354      3357      3360      3355      3354      3356      3355      3354      3357
      3356      3354      3357      3357      3360      3361      3357      3360      3362
      3357      3360      3363      3358      3357      3359      3358      3357      3360
      3359      3357      3360      3360      3363      3364      3360      3363      3365
      3360      3363      3366      3361      3360      3362      3361      3360      3363
      3362      3360      3363      3363      3366      3367      3363      3366      3368
      3363      3366      3369      3364      3363      3365      3364      3363      3366
      3365      3363      3366      3366      3369      3370      3366      3369      3371
      3366      3369      3372      3367      3366      3368      3367      3366      3369
      3368      3366      3369      3369      3372      3373      3369      3372      3374
      3369      3372      3375      3370      3369      3371      3370      3369      3372
      3371      3369      3372      3373      3372      3374      3373      3372      3375
      3374      3372      3375      3376      3379      3380      3376      3379      3381
      3376      3379      3382      3377      3376      3378      3377      3376      3379
      3378      3376      3379      3379      3382      3383      3379      3382      3384
      3379      3382      3385      3380      3379      3381      3380      3379      3382
      3381      3379      3382      3382      3385      3386      3382      3385      3387
      3382      3385      3388      3383      3382      3384      3383      3382      3385
      3384      3382      3385      3385      3388      3389      3385      3388      3390
      3385      3388      3391      3386      3385      3387      3386      3385      3388
      3387      3385      3388      3388      3391      3392      3388      3391      3393
      3388      3391      3394      3389      3388      3390      3389      3388      3391
      3390      3388      3391      3391      3394      3395      3391      3394      3396
      3391      3394      3397      3392      3391      3393      3392      3391      3394
      3393      3391      3394      3394      3397      3398      3394      3397      3399
      3394      3397      3400      3395      3394      3396      3395      3394      3397
      3396      3394      3397      3397      3400      3401      3397      3400      3402
      3397      3400      3403      3398      3397      3399      3398      3397      3400
      3399      3397      3400      3400      3403      3404      3400      3403      3405
      3400      3403      3406      3401      3400      3402      3401      3400      3403
      3402      3400      3403      3403      3406      3407      3403      3406      3408
      3403      3406      3409      3404      3403      3405      3404      3403      3406
      3405      3403      3406      3406      3409      3410      3406      3409      3411
      3406      3409      3412      3407      3406      3408      3407      3406      3409
      3408      3406      3409      3409      3412      3413      3409      3412      3414
      3409      3412      3415      3410      3409      3411      3410      3409      3412
      3411      3409      3412      3412      3415      3416      3412      3415      3417
      3412      3415      3418      3413      3412      3414      3413      3412      3415
      3414      3412      3415      3416      3415      3417      3416      3415      3418
      3417      3415      3418      3419      3420      3421      3419      3420      3422
      3419      3420      3435      3419      3423      3424      3419      3423      3425
      3419      3423      3426      3419      3427      3428      3419      3427      3429
      3419      3427      3430      3419      3431      3432      3419      3431      3433
      3419      3431      3434      3420      3419      3423      3420      3419      3427
      3420      3419      3431      3420      3435      3436      3420      3435      3437
      3420      3435      3441      3421      3420      3422      3421      3420      3435
      3422      3420      3435      3423      3419      3427      3423      3419      3431
      3424      3423      3425      3424      3423      3426      3425      3423      3426
      3427      3419      3431      3428      3427      3429      3428      3427      3430
      3429      3427      3430      3432      3431      3433      3432      3431      3434
      3433      3431      3434      3435      3441      3438      3436      3435      3437
      3436      3435      3441      3437      3435      3441      3438      3442      3443
      3439      3438      3440      3439      3438      3441      3439      3438      3442
      3440      3438      3441      3440      3438      3442      3441      3438      3442
      3442      3443      3444      3442      3443      3445      3442      3443      3446
      3443      3446      3447      3443      3446      3448      3443      3446      3454
      3444      3443      3445      3444      3443      3446      3445      3443      3446
      3446      3448      3449      3446      3454      3455      3446      3454      3456
      3446      3454      3457      3447      3446      3448      3447      3446      3454
      3448      3446      3454      3448      3449      3450      3448      3449      3451
      3449      3451      3452      3449      3451      3453      3449      3451      3463
      3450      3449      3451      3451      3463      3464      3451      3463      3465
      3451      3463      3466      3452      3451      3453      3452      3451      3463
      3453      3451      3463      3454      3457      3458      3455      3454      3456
      3455      3454      3457      3456      3454      3457      3457      3458      3459
      3457      3458      3460      3458      3460      3461      3458      3460      3462
      3458      3460      3510      3459      3458      3460      3460      3510      3511
      3460      3510      3512      3460      3510      3513      3461      3460      3462
      3461      3460      3510      3462      3460      3510      3463      3466      3467
      3463      3466      3468      3463      3466      3469      3464      3463      3465
      3464      3463      3466      3465      3463      3466      3466      3469      3470
      3466      3469      3471      3466      3469      3472      3467      3466      3468
      3467      3466      3469      3468      3466      3469      3469      3472      3473
      3469      3472      3474      3469      3472      3475      3470      3469      3471
      3470      3469      3472      3471      3469      3472      3472      3475      3476
      3472      3475      3477      3472      3475      3478      3473      3472      3474
      3473      3472      3475      3474      3472      3475      3475      3478      3479
      3475      3478      3480      3475      3478      3481      3476      3475      3477
      3476      3475      3478      3477      3475      3478      3478      3481      3482
      3478      3481      3483      3479      3478      3480      3479      3478      3481
      3480      3478      3481      3481      3483      3484      3481      3483      3485
      3482      3481      3483      3483      3485      3486      3483      3485      3487
      3483      3485      3488      3484      3483      3485      3485      3488      3489
      3485      3488      3490      3485      3488      3491      3486      3485      3487
      3486      3485      3488      3487      3485      3488      3488      3491      3492
      3488      3491      3493      3488      3491      3494      3489      3488      3490
      3489      3488      3491      3490      3488      3491      3491      3494      3495
      3491      3494      3496      3491      3494      3497      3492      3491      3493
      3492      3491      3494      3493      3491      3494      3494      3497      3498
      3494      3497      3499      3494      3497      3500      3495      3494      3496
      3495      3494      3497      3496      3494      3497      3497      3500      3501
      3497      3500      3502      3497      3500      3503      3498      3497      3499
      3498      3497      3500      3499      3497      3500      3500      3503      3504
      3500      3503      3505      3500      3503      3506      3501      3500      3502
      3501      3500      3503      3502      3500      3503      3503      3506      3507
      3503      3506      3508      3503      3506      3509      3504      3503      3505
      3504      3503      3506      3505      3503      3506      3507      3506      3508
      3507      3506      3509      3508      3506      3509      3510      3513      3514
      3510      3513      3515      3510      3513      3516      3511      3510      3512
      3511      3510      3513      3512      3510      3513      3513      3516      3517
      3513      3516      3518      3513      3516      3519      3514      3513      3515
      3514      3513      3516      3515      3513      3516      3516      3519      3520
      3516      3519      3521      3516      3519      3522      3517      3516      3518
      3517      3516      3519      3518      3516      3519      3519      3522      3523
      3519      3522      3524      3519      3522      3525      3520      3519      3521
      3520      3519      3522      3521      3519      3522      3522      3525      3526
      3522      3525      3527      3522      3525      3528      3523      3522      3524
      3523      3522      3525      3524      3522      3525      3525      3528      3529
      3525      3528      3530      3525      3528      3531      3526      3525      3527
      3526      3525      3528      3527      3525      3528      3528      3531      3532
      3528      3531      3533      3528      3531      3534      3529      3528      3530
      3529      3528      3531      3530      3528      3531      3531      3534      3535
      3531      3534      3536      3531      3534      3537      3532      3531      3533
      3532      3531      3534      3533      3531      3534      3534      3537      3538
      3534      3537      3539      3534      3537      3540      3535      3534      3536
      3535      3534      3537      3536      3534      3537      3537      3540      3541
      3537      3540      3542      3537      3540      3543      3538      3537      3539
      3538      3537      3540      3539      3537      3540      3540      3543      3544
      3540      3543      3545      3540      3543      3546      3541      3540      3542
      3541      3540      3543      3542      3540      3543      3543      3546      3547
      3543      3546      3548      3543      3546      3549      3544      3543      3545
      3544      3543      3546      3545      3543      3546      3546      3549      3550
      3546      3549      3551      3546      3549      3552      3547      3546      3548
      3547      3546      3549      3548      3546      3549      3550      3549      3551
      3550      3549      3552      3551      3549      3552      3553      3554      3555
      3553      3554      3556      3553      3554      3569      3553      3557      3558
      3553      3557      3559      3553      3557      3560      3553      3561      3562
      3553      3561      3563      3553      3561      3564      3553      3565      3566
      3553      3565      3567      3553      3565      3568      3554      3553      3557
      3554      3553      3561      3554      3553      3565      3554      3569      3570
      3554      3569      3571      3554      3569      3575      3555      3554      3556
      3555      3554      3569      3556      3554      3569      3557      3553      3561
      3557      3553      3565      3558      3557      3559      3558      3557      3560
      3559      3557      3560      3561      3553      3565      3562      3561      3563
      3562      3561      3564      3563      3561      3564      3566      3565      3567
      3566      3565      3568      3567      3565      3568      3569      3575      3572
      3570      3569      3571      3570      3569      3575      3571      3569      3575
      3572      3576      3577      3573      3572      3574      3573      3572      3575
      3573      3572      3576      3574      3572      3575      3574      3572      3576
      3575      3572      3576      3576      3577      3578      3576      3577      3579
      3576      3577      3580      3577      3580      3581      3577      3580      3582
      3577      3580      3588      3578      3577      3579      3578      3577      3580
      3579      3577      3580      3580      3582      3583      3580      3588      3589
      3580      3588      3590      3580      3588      3591      3581      3580      3582
      3581      3580      3588      3582      3580      3588      3582      3583      3584
      3582      3583      3585      3583      3585      3586      3583      3585      3587
      3583      3585      3597      3584      3583      3585      3585      3597      3598
      3585      3597      3599      3585      3597      3600      3586      3585      3587
      3586      3585      3597      3587      3585      3597      3588      3591      3592
      3589      3588      3590      3589      3588      3591      3590      3588      3591
      3591      3592      3593      3591      3592      3594      3592      3594      3595
      3592      3594      3596      3592      3594      3644      3593      3592      3594
      3594      3644      3645      3594      3644      3646      3594      3644      3647
      3595      3594      3596      3595      3594      3644      3596      3594      3644
      3597      3600      3601      3597      3600      3602      3597      3600      3603
      3598      3597      3599      3598      3597      3600      3599      3597      3600
      3600      3603      3604      3600      3603      3605      3600      3603      3606
      3601      3600      3602      3601      3600      3603      3602      3600      3603
      3603      3606      3607      3603      3606      3608      3603      3606      3609
      3604      3603      3605      3604      3603      3606      3605      3603      3606
      3606      3609      3610      3606      3609      3611      3606      3609      3612
      3607      3606      3608      3607      3606      3609      3608      3606      3609
      3609      3612      3613      3609      3612      3614      3609      3612      3615
      3610      3609      3611      3610      3609      3612      3611      3609      3612
      3612      3615      3616      3612      3615      3617      3613      3612      3614
      3613      3612      3615      3614      3612      3615      3615      3617      3618
      3615      3617      3619      3616      3615      3617      3617      3619      3620
      3617      3619      3621      3617      3619      3622      3618      3617      3619
      3619      3622      3623      3619      3622      3624      3619      3622      3625
      3620      3619      3621      3620      3619      3622      3621      3619      3622
      3622      3625      3626      3622      3625      3627      3622      3625      3628
      3623      3622      3624      3623      3622      3625      3624      3622      3625
      3625      3628      3629      3625      3628      3630      3625      3628      3631
      3626      3625      3627      3626      3625      3628      3627      3625      3628
      3628      3631      3632      3628      3631      3633      3628      3631      3634
      3629      3628      3630      3629      3628      3631      3630      3628      3631
      3631      3634      3635      3631      3634      3636      3631      3634      3637
      3632      3631      3633      3632      3631      3634      3633      3631      3634
      3634      3637      3638      3634      3637      3639      3634      3637      3640
      3635      3634      3636      3635      3634      3637      3636      3634      3637
      3637      3640      3641      3637      3640      3642      3637      3640      3643
      3638      3637      3639      3638      3637      3640      3639      3637      3640
      3641      3640      3642      3641      3640      3643      3642      3640      3643
      3644      3647      3648      3644      3647      3649      3644      3647      3650
      3645      3644      3646      3645      3644      3647      3646      3644      3647
      3647      3650      3651      3647      3650      3652      3647      3650      3653
      3648      3647      3649      3648      3647      3650      3649      3647      3650
      3650      3653      3654      3650      3653      3655      3650      3653      3656
      3651      3650      3652      3651      3650      3653      3652      3650      3653
      3653      3656      3657      3653      3656      3658      3653      3656      3659
      3654      3653      3655      3654      3653      3656      3655      3653      3656
      3656      3659      3660      3656      3659      3661      3656      3659      3662
      3657      3656      3658      3657      3656      3659      3658      3656      3659
      3659      3662      3663      3659      3662      3664      3659      3662      3665
      3660      3659      3661      3660      3659      3662      3661      3659      3662
      3662      3665      3666      3662      3665      3667      3662      3665      3668
      3663      3662      3664      3663      3662      3665      3664      3662      3665
      3665      3668      3669      3665      3668      3670      3665      3668      3671
      3666      3665      3667      3666      3665      3668      3667      3665      3668
      3668      3671      3672      3668      3671      3673      3668      3671      3674
      3669      3668      3670      3669      3668      3671      3670      3668      3671
      3671      3674      3675      3671      3674      3676      3671      3674      3677
      3672      3671      3673      3672      3671      3674      3673      3671      3674
      3674      3677      3678      3674      3677      3679      3674      3677      3680
      3675      3674      3676      3675      3674      3677      3676      3674      3677
      3677      3680      3681      3677      3680      3682      3677      3680      3683
      3678      3677      3679      3678      3677      3680      3679      3677      3680
      3680      3683      3684      3680      3683      3685      3680      3683      3686
      3681      3680      3682      3681      3680      3683      3682      3680      3683
      3684      3683      3685      3684      3683      3686      3685      3683      3686
      3687      3688      3689      3687      3688      3690      3687      3688      3703
      3687      3691      3692      3687      3691      3693      3687      3691      3694
      3687      3695      3696      3687      3695      3697      3687      3695      3698
      3687      3699      3700      3687      3699      3701      3687      3699      3702
      3688      3687      3691      3688      3687      3695      3688      3687      3699
      3688      3703      3704      3688      3703      3705      3688      3703      3709
      3689      3688      3690      3689      3688      3703      3690      3688      3703
      3691      3687      3695      3691      3687      3699      3692      3691      3693
      3692      3691      3694      3693      3691      3694      3695      3687      3699
      3696      3695      3697      3696      3695      3698      3697      3695      3698
      3700      3699      3701      3700      3699      3702      3701      3699      3702
      3703      3709      3706      3704      3703      3705      3704      3703      3709
      3705      3703      3709      3706      3710      3711      3707      3706      3708
      3707      3706      3709      3707      3706      3710      3708      3706      3709
      3708      3706      3710      3709      3706      3710      3710      3711      3712
      3710      3711      3713      3710      3711      3714      3711      3714      3715
      3711      3714      3716      3711      3714      3722      3712      3711      3713
      3712      3711      3714      3713      3711      3714      3714      3716      3717
      3714      3722      3723      3714      3722      3724      3714      3722      3725
      3715      3714      3716      3715      3714      3722      3716      3714      3722
      3716      3717      3718      3716      3717      3719      3717      3719      3720
      3717      3719      3721      3717      3719      3731      3718      3717      3719
      3719      3731      3732      3719      3731      3733      3719      3731      3734
      3720      3719      3721      3720      3719      3731      3721      3719      3731
      3722      3725      3726      3723      3722      3724      3723      3722      3725
      3724      3722      3725      3725      3726      3727      3725      3726      3728
      3726      3728      3729      3726      3728      3730      3726      3728      3778
      3727      3726      3728      3728      3778      3779      3728      3778      3780
      3728      3778      3781      3729      3728      3730      3729      3728      3778
      3730      3728      3778      3731      3734      3735      3731      3734      3736
      3731      3734      3737      3732      3731      3733      3732      3731      3734
      3733      3731      3734      3734      3737      3738      3734      3737      3739
      3734      3737      3740      3735      3734      3736      3735      3734      3737
      3736      3734      3737      3737      3740      3741      3737      3740      3742
      3737      3740      3743      3738      3737      3739      3738      3737      3740
      3739      3737      3740      3740      3743      3744      3740      3743      3745
      3740      3743      3746      3741      3740      3742      3741      3740      3743
      3742      3740      3743      3743      3746      3747      3743      3746      3748
      3743      3746      3749      3744      3743      3745      3744      3743      3746
      3745      3743      3746      3746      3749      3750      3746      3749      3751
      3747      3746      3748      3747      3746      3749      3748      3746      3749
      3749      3751      3752      3749      3751      3753      3750      3749      3751
      3751      3753      3754      3751      3753      3755      3751      3753      3756
      3752      3751      3753      3753      3756      3757      3753      3756      3758
      3753      3756      3759      3754      3753      3755      3754      3753      3756
      3755      3753      3756      3756      3759      3760      3756      3759      3761
      3756      3759      3762      3757      3756      3758      3757      3756      3759
      3758      3756      3759      3759      3762      3763      3759      3762      3764
      3759      3762      3765      3760      3759      3761      3760      3759      3762
      3761      3759      3762      3762      3765      3766      3762      3765      3767
      3762      3765      3768      3763      3762      3764      3763      3762      3765
      3764      3762      3765      3765      3768      3769      3765      3768      3770
      3765      3768      3771      3766      3765      3767      3766      3765      3768
      3767      3765      3768      3768      3771      3772      3768      3771      3773
      3768      3771      3774      3769      3768      3770      3769      3768      3771
      3770      3768      3771      3771      3774      3775      3771      3774      3776
      3771      3774      3777      3772      3771      3773      3772      3771      3774
      3773      3771      3774      3775      3774      3776      3775      3774      3777
      3776      3774      3777      3778      3781      3782      3778      3781      3783
      3778      3781      3784      3779      3778      3780      3779      3778      3781
      3780      3778      3781      3781      3784      3785      3781      3784      3786
      3781      3784      3787      3782      3781      3783      3782      3781      3784
      3783      3781      3784      3784      3787      3788      3784      3787      3789
      3784      3787      3790      3785      3784      3786      3785      3784      3787
      3786      3784      3787      3787      3790      3791      3787      3790      3792
      3787      3790      3793      3788      3787      3789      3788      3787      3790
      3789      3787      3790      3790      3793      3794      3790      3793      3795
      3790      3793      3796      3791      3790      3792      3791      3790      3793
      3792      3790      3793      3793      3796      3797      3793      3796      3798
      3793      3796      3799      3794      3793      3795      3794      3793      3796
      3795      3793      3796      3796      3799      3800      3796      3799      3801
      3796      3799      3802      3797      3796      3798      3797      3796      3799
      3798      3796      3799      3799      3802      3803      3799      3802      3804
      3799      3802      3805      3800      3799      3801      3800      3799      3802
      3801      3799      3802      3802      3805      3806      3802      3805      3807
      3802      3805      3808      3803      3802      3804      3803      3802      3805
      3804      3802      3805      3805      3808      3809      3805      3808      3810
      3805      3808      3811      3806      3805      3807      3806      3805      3808
      3807      3805      3808      3808      3811      3812      3808      3811      3813
      3808      3811      3814      3809      3808      3810      3809      3808      3811
      3810      3808      3811      3811      3814      3815      3811      3814      3816
      3811      3814      3817      3812      3811      3813      3812      3811      3814
      3813      3811      3814      3814      3817      3818      3814      3817      3819
      3814      3817      3820      3815      3814      3816      3815      3814      3817
      3816      3814      3817      3818      3817      3819      3818      3817      3820
      3819      3817      3820      3821      3822      3823      3821      3822      3824
      3821      3822      3837      3821      3825      3826      3821      3825      3827
      3821      3825      3828      3821      3829      3830      3821      3829      3831
      3821      3829      3832      3821      3833      3834      3821      3833      3835
      3821      3833      3836      3822      3821      3825      3822      3821      3829
      3822      3821      3833      3822      3837      3838      3822      3837      3839
      3822      3837      3843      3823      3822      3824      3823      3822      3837
      3824      3822      3837      3825      3821      3829      3825      3821      3833
      3826      3825      3827      3826      3825      3828      3827      3825      3828
      3829      3821      3833      3830      3829      3831      3830      3829      3832
      3831      3829      3832      3834      3833      3835      3834      3833      3836
      3835      3833      3836      3837      3843      3840      3838      3837      3839
      3838      3837      3843      3839      3837      3843      3840      3844      3845
      3841      3840      3842      3841      3840      3843      3841      3840      3844
      3842      3840      3843      3842      3840      3844      3843      3840      3844
      3844      3845      3846      3844      3845      3847      3844      3845      3848
      3845      3848      3849      3845      3848      3850      3845      3848      3856
      3846      3845      3847      3846      3845      3848      3847      3845      3848
      3848      3850      3851      3848      3856      3857      3848      3856      3858
      3848      3856      3859      3849      3848      3850      3849      3848      3856
      3850      3848      3856      3850      3851      3852      3850      3851      3853
      3851      3853      3854      3851      3853      3855      3851      3853      3865
      3852      3851      3853      3853      3865      3866      3853      3865      3867
      3853      3865      3868      3854      3853      3855      3854      3853      3865
      3855      3853      3865      3856      3859      3860      3857      3856      3858
      3857      3856      3859      3858      3856      3859      3859      3860      3861
      3859      3860      3862      3860      3862      3863      3860      3862      3864
      3860      3862      3912      3861      3860      3862      3862      3912      3913
      3862      3912      3914      3862      3912      3915      3863      3862      3864
      3863      3862      3912      3864      3862      3912      3865      3868      3869
      3865      3868      3870      3865      3868      3871      3866      3865      3867
      3866      3865      3868      3867      3865      3868      3868      3871      3872
      3868      3871      3873      3868      3871      3874      3869      3868      3870
      3869      3868      3871      3870      3868      3871      3871      3874      3875
      3871      3874      3876      3871      3874      3877      3872      3871      3873
      3872      3871      3874      3873      3871      3874      3874      3877      3878
      3874      3877      3879      3874      3877      3880      3875      3874      3876
      3875      3874      3877      3876      3874      3877      3877      3880      3881
      3877      3880      3882      3877      3880      3883      3878      3877      3879
      3878      3877      3880      3879      3877      3880      3880      3883      3884
      3880      3883      3885      3881      3880      3882      3881      3880      3883
      3882      3880      3883      3883      3885      3886      3883      3885      3887
      3884      3883      3885      3885      3887      3888      3885      3887      3889
      3885      3887      3890      3886      3885      3887      3887      3890      3891
      3887      3890      3892      3887      3890      3893      3888      3887      3889
      3888      3887      3890      3889      3887      3890      3890      3893      3894
      3890      3893      3895      3890      3893      3896      3891      3890      3892
      3891      3890      3893      3892      3890      3893      3893      3896      3897
      3893      3896      3898      3893      3896      3899      3894      3893      3895
      3894      3893      3896      3895      3893      3896      3896      3899      3900
      3896      3899      3901      3896      3899      3902      3897      3896      3898
      3897      3896      3899      3898      3896      3899      3899      3902      3903
      3899      3902      3904      3899      3902      3905      3900      3899      3901
      3900      3899      3902      3901      3899      3902      3902      3905      3906
      3902      3905      3907      3902      3905      3908      3903      3902      3904
      3903      3902      3905      3904      3902      3905      3905      3908      3909
      3905      3908      3910      3905      3908      3911      3906      3905      3907
      3906      3905      3908      3907      3905      3908      3909      3908      3910
      3909      3908      3911      3910      3908      3911      3912      3915      3916
      3912      3915      3917      3912      3915      3918      3913      3912      3914
      3913      3912      3915      3914      3912      3915      3915      3918      3919
      3915      3918      3920      3915      3918      3921      3916      3915      3917
      3916      3915      3918      3917      3915      3918      3918      3921      3922
      3918      3921      3923      3918      3921      3924      3919      3918      3920
      3919      3918      3921      3920      3918      3921      3921      3924      3925
      3921      3924      3926      3921      3924      3927      3922      3921      3923
      3922      3921      3924      3923      3921      3924      3924      3927      3928
      3924      3927      3929      3924      3927      3930      3925      3924      3926
      3925      3924      3927      3926      3924      3927      3927      3930      3931
      3927      3930      3932      3927      3930      3933      3928      3927      3929
      3928      3927      3930      3929      3927      3930      3930      3933      3934
      3930      3933      3935      3930      3933      3936      3931      3930      3932
      3931      3930      3933      3932      3930      3933      3933      3936      3937
      3933      3936      3938      3933      3936      3939      3934      3933      3935
      3934      3933      3936      3935      3933      3936      3936      3939      3940
      3936      3939      3941      3936      3939      3942      3937      3936      3938
      3937      3936      3939      3938      3936      3939      3939      3942      3943
      3939      3942      3944      3939      3942      3945      3940      3939      3941
      3940      3939      3942      3941      3939      3942      3942      3945      3946
      3942      3945      3947      3942      3945      3948      3943      3942      3944
      3943      3942      3945      3944      3942      3945      3945      3948      3949
      3945      3948      3950      3945      3948      3951      3946      3945      3947
      3946      3945      3948      3947      3945      3948      3948      3951      3952
      3948      3951      3953      3948      3951      3954      3949      3948      3950
      3949      3948      3951      3950      3948      3951      3952      3951      3953
      3952      3951      3954      3953      3951      3954      3955      3956      3957
      3955      3956      3958      3955      3956      3971      3955      3959      3960
      3955      3959      3961      3955      3959      3962      3955      3963      3964
      3955      3963      3965      3955      3963      3966      3955      3967      3968
      3955      3967      3969      3955      3967      3970      3956      3955      3959
      3956      3955      3963      3956      3955      3967      3956      3971      3972
      3956      3971      3973      3956      3971      3977      3957      3956      3958
      3957      3956      3971      3958      3956      3971      3959      3955      3963
      3959      3955      3967      3960      3959      3961      3960      3959      3962
      3961      3959      3962      3963      3955      3967      3964      3963      3965
      3964      3963      3966      3965      3963      3966      3968      3967      3969
      3968      3967      3970      3969      3967      3970      3971      3977      3974
      3972      3971      3973      3972      3971      3977      3973      3971      3977
      3974      3978      3979      3975      3974      3976      3975      3974      3977
      3975      3974      3978      3976      3974      3977      3976      3974      3978
      3977      3974      3978      3978      3979      3980      3978      3979      3981
      3978      3979      3982      3979      3982      3983      3979      3982      3984
      3979      3982      3990      3980      3979      3981      3980      3979      3982
      3981      3979      3982      3982      3984      3985      3982      3990      3991
      3982      3990      3992      3982      3990      3993      3983      3982      3984
      3983      3982      3990      3984      3982      3990      3984      3985      3986
      3984      3985      3987      3985      3987      3988      3985      3987      3989
      3985      3987      3999      3986      3985      3987      3987      3999      4000
      3987      3999      4001      3987      3999      4002      3988      3987      3989
      3988      3987      3999      3989      3987      3999      3990      3993      3994
      3991      3990      3992      3991      3990      3993      3992      3990      3993
      3993      3994      3995      3993      3994      3996      3994      3996      3997
      3994      3996      3998      3994      3996      4046      3995      3994      3996
      3996      4046      4047      3996      4046      4048      3996      4046      4049
      3997      3996      3998      3997      3996      4046      3998      3996      4046
      3999      4002      4003      3999      4002      4004      3999      4002      4005
      4000      3999      4001      4000      3999      4002      4001      3999      4002
      4002      4005      4006      4002      4005      4007      4002      4005      4008
      4003      4002      4004      4003      4002      4005      4004      4002      4005
      4005      4008      4009      4005      4008      4010      4005      4008      4011
      4006      4005      4007      4006      4005      4008      4007      4005      4008
      4008      4011      4012      4008      4011      4013      4008      4011      4014
      4009      4008      4010      4009      4008      4011      4010      4008      4011
      4011      4014      4015      4011      4014      4016      4011      4014      4017
      4012      4011      4013      4012      4011      4014      4013      4011      4014
      4014      4017      4018      4014      4017      4019      4015      4014      4016
      4015      4014      4017      4016      4014      4017      4017      4019      4020
      4017      4019      4021      4018      4017      4019      4019      4021      4022
      4019      4021      4023      4019      4021      4024      4020      4019      4021
      4021      4024      4025      4021      4024      4026      4021      4024      4027
      4022      4021      4023      4022      4021      4024      4023      4021      4024
      4024      4027      4028      4024      4027      4029      4024      4027      4030
      4025      4024      4026      4025      4024      4027      4026      4024      4027
      4027      4030      4031      4027      4030      4032      4027      4030      4033
      4028      4027      4029      4028      4027      4030      4029      4027      4030
      4030      4033      4034      4030      4033      4035      4030      4033      4036
      4031      4030      4032      4031      4030      4033      4032      4030      4033
      4033      4036      4037      4033      4036      4038      4033      4036      4039
      4034      4033      4035      4034      4033      4036      4035      4033      4036
      4036      4039      4040      4036      4039      4041      4036      4039      4042
      4037      4036      4038      4037      4036      4039      4038      4036      4039
      4039      4042      4043      4039      4042      4044      4039      4042      4045
      4040      4039      4041      4040      4039      4042      4041      4039      4042
      4043      4042      4044      4043      4042      4045      4044      4042      4045
      4046      4049      4050      4046      4049      4051      4046      4049      4052
      4047      4046      4048      4047      4046      4049      4048      4046      4049
      4049      4052      4053      4049      4052      4054      4049      4052      4055
      4050      4049      4051      4050      4049      4052      4051      4049      4052
      4052      4055      4056      4052      4055      4057      4052      4055      4058
      4053      4052      4054      4053      4052      4055      4054      4052      4055
      4055      4058      4059      4055      4058      4060      4055      4058      4061
      4056      4055      4057      4056      4055      4058      4057      4055      4058
      4058      4061      4062      4058      4061      4063      4058      4061      4064
      4059      4058      4060      4059      4058      4061      4060      4058      4061
      4061      4064      4065      4061      4064      4066      4061      4064      4067
      4062      4061      4063      4062      4061      4064      4063      4061      4064
      4064      4067      4068      4064      4067      4069      4064      4067      4070
      4065      4064      4066      4065      4064      4067      4066      4064      4067
      4067      4070      4071      4067      4070      4072      4067      4070      4073
      4068      4067      4069      4068      4067      4070      4069      4067      4070
      4070      4073      4074      4070      4073      4075      4070      4073      4076
      4071      4070      4072      4071      4070      4073      4072      4070      4073
      4073      4076      4077      4073      4076      4078      4073      4076      4079
      4074      4073      4075      4074      4073      4076      4075      4073      4076
      4076      4079      4080      4076      4079      4081      4076      4079      4082
      4077      4076      4078      4077      4076      4079      4078      4076      4079
      4079      4082      4083      4079      4082      4084      4079      4082      4085
      4080      4079      4081      4080      4079      4082      4081      4079      4082
      4082      4085      4086      4082      4085      4087      4082      4085      4088
      4083      4082      4084      4083      4082      4085      4084      4082      4085
      4086      4085      4087      4086      4085      4088      4087      4085      4088
      4089      4090      4091      4089      4090      4092      4089      4090      4105
      4089      4093      4094      4089      4093      4095      4089      4093      4096
      4089      4097      4098      4089      4097      4099      4089      4097      4100
      4089      4101      4102      4089      4101      4103      4089      4101      4104
      4090      4089      4093      4090      4089      4097      4090      4089      4101
      4090      4105      4106      4090      4105      4107      4090      4105      4111
      4091      4090      4092      4091      4090      4105      4092      4090      4105
      4093      4089      4097      4093      4089      4101      4094      4093      4095
      4094      4093      4096      4095      4093      4096      4097      4089      4101
      4098      4097      4099      4098      4097      4100      4099      4097      4100
      4102      4101      4103      4102      4101      4104      4103      4101      4104
      4105      4111      4108      4106      4105      4107      4106      4105      4111
      4107      4105      4111      4108      4112      4113      4109      4108      4110
      4109      4108      4111      4109      4108      4112      4110      4108      4111
      4110      4108      4112      4111      4108      4112      4112      4113      4114
      4112      4113      4115      4112      4113      4116      4113      4116      4117
      4113      4116      4118      4113      4116      4124      4114      4113      4115
      4114      4113      4116      4115      4113      4116      4116      4118      4119
      4116      4124      4125      4116      4124      4126      4116      4124      4127
      4117      4116      4118      4117      4116      4124      4118      4116      4124
      4118      4119      4120      4118      4119      4121      4119      4121      4122
      4119      4121      4123      4119      4121      4133      4120      4119      4121
      4121      4133      4134      4121      4133      4135      4121      4133      4136
      4122      4121      4123      4122      4121      4133      4123      4121      4133
      4124      4127      4128      4125      4124      4126      4125      4124      4127
      4126      4124      4127      4127      4128      4129      4127      4128      4130
      4128      4130      4131      4128      4130      4132      4128      4130      4180
      4129      4128      4130      4130      4180      4181      4130      4180      4182
      4130      4180      4183      4131      4130      4132      4131      4130      4180
      4132      4130      4180      4133      4136      4137      4133      4136      4138
      4133      4136      4139      4134      4133      4135      4134      4133      4136
      4135      4133      4136      4136      4139      4140      4136      4139      4141
      4136      4139      4142      4137      4136      4138      4137      4136      4139
      4138      4136      4139      4139      4142      4143      4139      4142      4144
      4139      4142      4145      4140      4139      4141      4140      4139      4142
      4141      4139      4142      4142      4145      4146      4142      4145      4147
      4142      4145      4148      4143      4142      4144      4143      4142      4145
      4144      4142      4145      4145      4148      4149      4145      4148      4150
      4145      4148      4151      4146      4145      4147      4146      4145      4148
      4147      4145      4148      4148      4151      4152      4148      4151      4153
      4149      4148      4150      4149      4148      4151      4150      4148      4151
      4151      4153      4154      4151      4153      4155      4152      4151      4153
      4153      4155      4156      4153      4155      4157      4153      4155      4158
      4154      4153      4155      4155      4158      4159      4155      4158      4160
      4155      4158      4161      4156      4155      4157      4156      4155      4158
      4157      4155      4158      4158      4161      4162      4158      4161      4163
      4158      4161      4164      4159      4158      4160      4159      4158      4161
      4160      4158      4161      4161      4164      4165      4161      4164      4166
      4161      4164      4167      4162      4161      4163      4162      4161      4164
      4163      4161      4164      4164      4167      4168      4164      4167      4169
      4164      4167      4170      4165      4164      4166      4165      4164      4167
      4166      4164      4167      4167      4170      4171      4167      4170      4172
      4167      4170      4173      4168      4167      4169      4168      4167      4170
      4169      4167      4170      4170      4173      4174      4170      4173      4175
      4170      4173      4176      4171      4170      4172      4171      4170      4173
      4172      4170      4173      4173      4176      4177      4173      4176      4178
      4173      4176      4179      4174      4173      4175      4174      4173      4176
      4175      4173      4176      4177      4176      4178      4177      4176      4179
      4178      4176      4179      4180      4183      4184      4180      4183      4185
      4180      4183      4186      4181      4180      4182      4181      4180      4183
      4182      4180      4183      4183      4186      4187      4183      4186      4188
      4183      4186      4189      4184      4183      4185      4184      4183      4186
      4185      4183      4186      4186      4189      4190      4186      4189      4191
      4186      4189      4192      4187      4186      4188      4187      4186      4189
      4188      4186      4189      4189      4192      4193      4189      4192      4194
      4189      4192      4195      4190      4189      4191      4190      4189      4192
      4191      4189      4192      4192      4195      4196      4192      4195      4197
      4192      4195      4198      4193      4192      4194      4193      4192      4195
      4194      4192      4195      4195      4198      4199      4195      4198      4200
      4195      4198      4201      4196      4195      4197      4196      4195      4198
      4197      4195      4198      4198      4201      4202      4198      4201      4203
      4198      4201      4204      4199      4198      4200      4199      4198      4201
      4200      4198      4201      4201      4204      4205      4201      4204      4206
      4201      4204      4207      4202      4201      4203      4202      4201      4204
      4203      4201      4204      4204      4207      4208      4204      4207      4209
      4204      4207      4210      4205      4204      4206      4205      4204      4207
      4206      4204      4207      4207      4210      4211      4207      4210      4212
      4207      4210      4213      4208      4207      4209      4208      4207      4210
      4209      4207      4210      4210      4213      4214      4210      4213      4215
      4210      4213      4216      4211      4210      4212      4211      4210      4213
      4212      4210      4213      4213      4216      4217      4213      4216      4218
      4213      4216      4219      4214      4213      4215      4214      4213      4216
      4215      4213      4216      4216      4219      4220      4216      4219      4221
      4216      4219      4222      4217      4216      4218      4217      4216      4219
      4218      4216      4219      4220      4219      4221      4220      4219      4222
      4221      4219      4222      4223      4224      4225      4223      4224      4226
      4223      4224      4239      4223      4227      4228      4223      4227      4229
      4223      4227      4230      4223      4231      4232      4223      4231      4233
      4223      4231      4234      4223      4235      4236      4223      4235      4237
      4223      4235      4238      4224      4223      4227      4224      4223      4231
      4224      4223      4235      4224      4239      4240      4224      4239      4241
      4224      4239      4245      4225      4224      4226      4225      4224      4239
      4226      4224      4239      4227      4223      4231      4227      4223      4235
      4228      4227      4229      4228      4227      4230      4229      4227      4230
      4231      4223      4235      4232      4231      4233      4232      4231      4234
      4233      4231      4234      4236      4235      4237      4236      4235      4238
      4237      4235      4238      4239      4245      4242      4240      4239      4241
      4240      4239      4245      4241      4239      4245      4242      4246      4247
      4243      4242      4244      4243      4242      4245      4243      4242      4246
      4244      4242      4245      4244      4242      4246      4245      4242      4246
      4246      4247      4248      4246      4247      4249      4246      4247      4250
      4247      4250      4251      4247      4250      4252      4247      4250      4258
      4248      4247      4249      4248      4247      4250      4249      4247      4250
      4250      4252      4253      4250      4258      4259      4250      4258      4260
      4250      4258      4261      4251      4250      4252      4251      4250      4258
      4252      4250      4258      4252      4253      4254      4252      4253      4255
      4253      4255      4256      4253      4255      4257      4253      4255      4267
      4254      4253      4255      4255      4267      4268      4255      4267      4269
      4255      4267      4270      4256      4255      4257      4256      4255      4267
      4257      4255      4267      4258      4261      4262      4259      4258      4260
      4259      4258      4261      4260      4258      4261      4261      4262      4263
      4261      4262      4264      4262      4264      4265      4262      4264      4266
      4262      4264      4314      4263      4262      4264      4264      4314      4315
      4264      4314      4316      4264      4314      4317      4265      4264      4266
      4265      4264      4314      4266      4264      4314      4267      4270      4271
      4267      4270      4272      4267      4270      4273      4268      4267      4269
      4268      4267      4270      4269      4267      4270      4270      4273      4274
      4270      4273      4275      4270      4273      4276      4271      4270      4272
      4271      4270      4273      4272      4270      4273      4273      4276      4277
      4273      4276      4278      4273      4276      4279      4274      4273      4275
      4274      4273      4276      4275      4273      4276      4276      4279      4280
      4276      4279      4281      4276      4279      4282      4277      4276      4278
      4277      4276      4279      4278      4276      4279      4279      4282      4283
      4279      4282      4284      4279      4282      4285      4280      4279      4281
      4280      4279      4282      4281      4279      4282      4282      4285      4286
      4282      4285      4287      4283      4282      4284      4283      4282      4285
      4284      4282      4285      4285      4287      4288      4285      4287      4289
      4286      4285      4287      4287      4289      4290      4287      4289      4291
      4287      4289      4292      4288      4287      4289      4289      4292      4293
      4289      4292      4294      4289      4292      4295      4290      4289      4291
      4290      4289      4292      4291      4289      4292      4292      4295      4296
      4292      4295      4297      4292      4295      4298      4293      4292      4294
      4293      4292      4295      4294      4292      4295      4295      4298      4299
      4295      4298      4300      4295      4298      4301      4296      4295      4297
      4296      4295      4298      4297      4295      4298      4298      4301      4302
      4298      4301      4303      4298      4301      4304      4299      4298      4300
      4299      4298      4301      4300      4298      4301      4301      4304      4305
      4301      4304      4306      4301      4304      4307      4302      4301      4303
      4302      4301      4304      4303      4301      4304      4304      4307      4308
      4304      4307      4309      4304      4307      4310      4305      4304      4306
      4305      4304      4307      4306      4304      4307      4307      4310      4311
      4307      4310      4312      4307      4310      4313      4308      4307      4309
      4308      4307      4310      4309      4307      4310      4311      4310      4312
      4311      4310      4313      4312      4310      4313      4314      4317      4318
      4314      4317      4319      4314      4317      4320      4315      4314      4316
      4315      4314      4317      4316      4314      4317      4317      4320      4321
      4317      4320      4322      4317      4320      4323      4318      4317      4319
      4318      4317      4320      4319      4317      4320      4320      4323      4324
      4320      4323      4325      4320      4323      4326      4321      4320      4322
      4321      4320      4323      4322      4320      4323      4323      4326      4327
      4323      4326      4328      4323      4326      4329      4324      4323      4325
      4324      4323      4326      4325      4323      4326      4326      4329      4330
      4326      4329      4331      4326      4329      4332      4327      4326      4328
      4327      4326      4329      4328      4326      4329      4329      4332      4333
      4329      4332      4334      4329      4332      4335      4330      4329      4331
      4330      4329      4332      4331      4329      4332      4332      4335      4336
      4332      4335      4337      4332      4335      4338      4333      4332      4334
      4333      4332      4335      4334      4332      4335      4335      4338      4339
      4335      4338      4340      4335      4338      4341      4336      4335      4337
      4336      4335      4338      4337      4335      4338      4338      4341      4342
      4338      4341      4343      4338      4341      4344      4339      4338      4340
      4339      4338      4341      4340      4338      4341      4341      4344      4345
      4341      4344      4346      4341      4344      4347      4342      4341      4343
      4342      4341      4344      4343      4341      4344      4344      4347      4348
      4344      4347      4349      4344      4347      4350      4345      4344      4346
      4345      4344      4347      4346      4344      4347      4347      4350      4351
      4347      4350      4352      4347      4350      4353      4348      4347      4349
      4348      4347      4350      4349      4347      4350      4350      4353      4354
      4350      4353      4355      4350      4353      4356      4351      4350      4352
      4351      4350      4353      4352      4350      4353      4354      4353      4355
      4354      4353      4356      4355      4353      4356      4357      4358      4359
      4357      4358      4360      4357      4358      4373      4357      4361      4362
      4357      4361      4363      4357      4361      4364      4357      4365      4366
      4357      4365      4367      4357      4365      4368      4357      4369      4370
      4357      4369      4371      4357      4369      4372      4358      4357      4361
      4358      4357      4365      4358      4357      4369      4358      4373      4374
      4358      4373      4375      4358      4373      4379      4359      4358      4360
      4359      4358      4373      4360      4358      4373      4361      4357      4365
      4361      4357      4369      4362      4361      4363      4362      4361      4364
      4363      4361      4364      4365      4357      4369      4366      4365      4367
      4366      4365      4368      4367      4365      4368      4370      4369      4371
      4370      4369      4372      4371      4369      4372      4373      4379      4376
      4374      4373      4375      4374      4373      4379      4375      4373      4379
      4376      4380      4381      4377      4376      4378      4377      4376      4379
      4377      4376      4380      4378      4376      4379      4378      4376      4380
      4379      4376      4380      4380      4381      4382      4380      4381      4383
      4380      4381      4384      4381      4384      4385      4381      4384      4386
      4381      4384      4392      4382      4381      4383      4382      4381      4384
      4383      4381      4384      4384      4386      4387      4384      4392      4393
      4384      4392      4394      4384      4392      4395      4385      4384      4386
      4385      4384      4392      4386      4384      4392      4386      4387      4388
      4386      4387      4389      4387      4389      4390      4387      4389      4391
      4387      4389      4401      4388      4387      4389      4389      4401      4402
      4389      4401      4403      4389      4401      4404      4390      4389      4391
      4390      4389      4401      4391      4389      4401      4392      4395      4396
      4393      4392      4394      4393      4392      4395      4394      4392      4395
      4395      4396      4397      4395      4396      4398      4396      4398      4399
      4396      4398      4400      4396      4398      4448      4397      4396      4398
      4398      4448      4449      4398      4448      4450      4398      4448      4451
      4399      4398      4400      4399      4398      4448      4400      4398      4448
      4401      4404      4405      4401      4404      4406      4401      4404      4407
      4402      4401      4403      4402      4401      4404      4403      4401      4404
      4404      4407      4408      4404      4407      4409      4404      4407      4410
      4405      4404      4406      4405      4404      4407      4406      4404      4407
      4407      4410      4411      4407      4410      4412      4407      4410      4413
      4408      4407      4409      4408      4407      4410      4409      4407      4410
      4410      4413      4414      4410      4413      4415      4410      4413      4416
      4411      4410      4412      4411      4410      4413      4412      4410      4413
      4413      4416      4417      4413      4416      4418      4413      4416      4419
      4414      4413      4415      4414      4413      4416      4415      4413      4416
      4416      4419      4420      4416      4419      4421      4417      4416      4418
      4417      4416      4419      4418      4416      4419      4419      4421      4422
      4419      4421      4423      4420      4419      4421      4421      4423      4424
      4421      4423      4425      4421      4423      4426      4422      4421      4423
      4423      4426      4427      4423      4426      4428      4423      4426      4429
      4424      4423      4425      4424      4423      4426      4425      4423      4426
      4426      4429      4430      4426      4429      4431      4426      4429      4432
      4427      4426      4428      4427      4426      4429      4428      4426      4429
      4429      4432      4433      4429      4432      4434      4429      4432      4435
      4430      4429      4431      4430      4429      4432      4431      4429      4432
      4432      4435      4436      4432      4435      4437      4432      4435      4438
      4433      4432      4434      4433      4432      4435      4434      4432      4435
      4435      4438      4439      4435      4438      4440      4435      4438      4441
      4436      4435      4437      4436      4435      4438      4437      4435      4438
      4438      4441      4442      4438      4441      4443      4438      4441      4444
      4439      4438      4440      4439      4438      4441      4440      4438      4441
      4441      4444      4445      4441      4444      4446      4441      4444      4447
      4442      4441      4443      4442      4441      4444      4443      4441      4444
      4445      4444      4446      4445      4444      4447      4446      4444      4447
      4448      4451      4452      4448      4451      4453      4448      4451      4454
      4449      4448      4450      4449      4448      4451      4450      4448      4451
      4451      4454      4455      4451      4454      4456      4451      4454      4457
      4452      4451      4453      4452      4451      4454      4453      4451      4454
      4454      4457      4458      4454      4457      4459      4454      4457      4460
      4455      4454      4456      4455      4454      4457      4456      4454      4457
      4457      4460      4461      4457      4460      4462      4457      4460      4463
      4458      4457      4459      4458      4457      4460      4459      4457      4460
      4460      4463      4464      4460      4463      4465      4460      4463      4466
      4461      4460      4462      4461      4460      4463      4462      4460      4463
      4463      4466      4467      4463      4466      4468      4463      4466      4469
      4464      4463      4465      4464      4463      4466      4465      4463      4466
      4466      4469      4470      4466      4469      4471      4466      4469      4472
      4467      4466      4468      4467      4466      4469      4468      4466      4469
      4469      4472      4473      4469      4472      4474      4469      4472      4475
      4470      4469      4471      4470      4469      4472      4471      4469      4472
      4472      4475      4476      4472      4475      4477      4472      4475      4478
      4473      4472      4474      4473      4472      4475      4474      4472      4475
      4475      4478      4479      4475      4478      4480      4475      4478      4481
      4476      4475      4477      4476      4475      4478      4477      4475      4478
      4478      4481      4482      4478      4481      4483      4478      4481      4484
      4479      4478      4480      4479      4478      4481      4480      4478      4481
      4481      4484      4485      4481      4484      4486      4481      4484      4487
      4482      4481      4483      4482      4481      4484      4483      4481      4484
      4484      4487      4488      4484      4487      4489      4484      4487      4490
      4485      4484      4486      4485      4484      4487      4486      4484      4487
      4488      4487      4489      4488      4487      4490      4489      4487      4490
      4491      4492      4493      4491      4492      4494      4491      4492      4507
      4491      4495      4496      4491      4495      4497      4491      4495      4498
      4491      4499      4500      4491      4499      4501      4491      4499      4502
      4491      4503      4504      4491      4503      4505      4491      4503      4506
      4492      4491      4495      4492      4491      4499      4492      4491      4503
      4492      4507      4508      4492      4507      4509      4492      4507      4513
      4493      4492      4494      4493      4492      4507      4494      4492      4507
      4495      4491      4499      4495      4491      4503      4496      4495      4497
      4496      4495      4498      4497      4495      4498      4499      4491      4503
      4500      4499      4501      4500      4499      4502      4501      4499      4502
      4504      4503      4505      4504      4503      4506      4505      4503      4506
      4507      4513      4510      4508      4507      4509      4508      4507      4513
      4509      4507      4513      4510      4514      4515      4511      4510      4512
      4511      4510      4513      4511      4510      4514      4512      4510      4513
      4512      4510      4514      4513      4510      4514      4514      4515      4516
      4514      4515      4517      4514      4515      4518      4515      4518      4519
      4515      4518      4520      4515      4518      4526      4516      4515      4517
      4516      4515      4518      4517      4515      4518      4518      4520      4521
      4518      4526      4527      4518      4526      4528      4518      4526      4529
      4519      4518      4520      4519      4518      4526      4520      4518      4526
      4520      4521      4522      4520      4521      4523      4521      4523      4524
      4521      4523      4525      4521      4523      4535      4522      4521      4523
      4523      4535      4536      4523      4535      4537      4523      4535      4538
      4524      4523      4525      4524      4523      4535      4525      4523      4535
      4526      4529      4530      4527      4526      4528      4527      4526      4529
      4528      4526      4529      4529      4530      4531      4529      4530      4532
      4530      4532      4533      4530      4532      4534      4530      4532      4582
      4531      4530      4532      4532      4582      4583      4532      4582      4584
      4532      4582      4585      4533      4532      4534      4533      4532      4582
      4534      4532      4582      4535      4538      4539      4535      4538      4540
      4535      4538      4541      4536      4535      4537      4536      4535      4538
      4537      4535      4538      4538      4541      4542      4538      4541      4543
      4538      4541      4544      4539      4538      4540      4539      4538      4541
      4540      4538      4541      4541      4544      4545      4541      4544      4546
      4541      4544      4547      4542      4541      4543      4542      4541      4544
      4543      4541      4544      4544      4547      4548      4544      4547      4549
      4544      4547      4550      4545      4544      4546      4545      4544      4547
      4546      4544      4547      4547      4550      4551      4547      4550      4552
      4547      4550      4553      4548      4547      4549      4548      4547      4550
      4549      4547      4550      4550      4553      4554      4550      4553      4555
      4551      4550      4552      4551      4550      4553      4552      4550      4553
      4553      4555      4556      4553      4555      4557      4554      4553      4555
      4555      4557      4558      4555      4557      4559      4555      4557      4560
      4556      4555      4557      4557      4560      4561      4557      4560      4562
      4557      4560      4563      4558      4557      4559      4558      4557      4560
      4559      4557      4560      4560      4563      4564      4560      4563      4565
      4560      4563      4566      4561      4560      4562      4561      4560      4563
      4562      4560      4563      4563      4566      4567      4563      4566      4568
      4563      4566      4569      4564      4563      4565      4564      4563      4566
      4565      4563      4566      4566      4569      4570      4566      4569      4571
      4566      4569      4572      4567      4566      4568      4567      4566      4569
      4568      4566      4569      4569      4572      4573      4569      4572      4574
      4569      4572      4575      4570      4569      4571      4570      4569      4572
      4571      4569      4572      4572      4575      4576      4572      4575      4577
      4572      4575      4578      4573      4572      4574      4573      4572      4575
      4574      4572      4575      4575      4578      4579      4575      4578      4580
      4575      4578      4581      4576      4575      4577      4576      4575      4578
      4577      4575      4578      4579      4578      4580      4579      4578      4581
      4580      4578      4581      4582      4585      4586      4582      4585      4587
      4582      4585      4588      4583      4582      4584      4583      4582      4585
      4584      4582      4585      4585      4588      4589      4585      4588      4590
      4585      4588      4591      4586      4585      4587      4586      4585      4588
      4587      4585      4588      4588      4591      4592      4588      4591      4593
      4588      4591      4594      4589      4588      4590      4589      4588      4591
      4590      4588      4591      4591      4594      4595      4591      4594      4596
      4591      4594      4597      4592      4591      4593      4592      4591      4594
      4593      4591      4594      4594      4597      4598      4594      4597      4599
      4594      4597      4600      4595      4594      4596      4595      4594      4597
      4596      4594      4597      4597      4600      4601      4597      4600      4602
      4597      4600      4603      4598      4597      4599      4598      4597      4600
      4599      4597      4600      4600      4603      4604      4600      4603      4605
      4600      4603      4606      4601      4600      4602      4601      4600      4603
      4602      4600      4603      4603      4606      4607      4603      4606      4608
      4603      4606      4609      4604      4603      4605      4604      4603      4606
      4605      4603      4606      4606      4609      4610      4606      4609      4611
      4606      4609      4612      4607      4606      4608      4607      4606      4609
      4608      4606      4609      4609      4612      4613      4609      4612      4614
      4609      4612      4615      4610      4609      4611      4610      4609      4612
      4611      4609      4612      4612      4615      4616      4612      4615      4617
      4612      4615      4618      4613      4612      4614      4613      4612      4615
      4614      4612      4615      4615      4618      4619      4615      4618      4620
      4615      4618      4621      4616      4615      4617      4616      4615      4618
      4617      4615      4618      4618      4621      4622      4618      4621      4623
      4618      4621      4624      4619      4618      4620      4619      4618      4621
      4620      4618      4621      4622      4621      4623      4622      4621      4624
      4623      4621      4624      4625      4626      4627      4625      4626      4628
      4625      4626      4641      4625      4629      4630      4625      4629      4631
      4625      4629      4632      4625      4633      4634      4625      4633      4635
      4625      4633      4636      4625      4637      4638      4625      4637      4639
      4625      4637      4640      4626      4625      4629      4626      4625      4633
      4626      4625      4637      4626      4641      4642      4626      4641      4643
      4626      4641      4647      4627      4626      4628      4627      4626      4641
      4628      4626      4641      4629      4625      4633      4629      4625      4637
      4630      4629      4631      4630      4629      4632      4631      4629      4632
      4633      4625      4637      4634      4633      4635      4634      4633      4636
      4635      4633      4636      4638      4637      4639      4638      4637      4640
      4639      4637      4640      4641      4647      4644      4642      4641      4643
      4642      4641      4647      4643      4641      4647      4644      4648      4649
      4645      4644      4646      4645      4644      4647      4645      4644      4648
      4646      4644      4647      4646      4644      4648      4647      4644      4648
      4648      4649      4650      4648      4649      4651      4648      4649      4652
      4649      4652      4653      4649      4652      4654      4649      4652      4660
      4650      4649      4651      4650      4649      4652      4651      4649      4652
      4652      4654      4655      4652      4660      4661      4652      4660      4662
      4652      4660      4663      4653      4652      4654      4653      4652      4660
      4654      4652      4660      4654      4655      4656      4654      4655      4657
      4655      4657      4658      4655      4657      4659      4655      4657      4669
      4656      4655      4657      4657      4669      4670      4657      4669      4671
      4657      4669      4672      4658      4657      4659      4658      4657      4669
      4659      4657      4669      4660      4663      4664      4661      4660      4662
      4661      4660      4663      4662      4660      4663      4663      4664      4665
      4663      4664      4666      4664      4666      4667      4664      4666      4668
      4664      4666      4716      4665      4664      4666      4666      4716      4717
      4666      4716      4718      4666      4716      4719      4667      4666      4668
      4667      4666      4716      4668      4666      4716      4669      4672      4673
      4669      4672      4674      4669      4672      4675      4670      4669      4671
      4670      4669      4672      4671      4669      4672      4672      4675      4676
      4672      4675      4677      4672      4675      4678      4673      4672      4674
      4673      4672      4675      4674      4672      4675      4675      4678      4679
      4675      4678      4680      4675      4678      4681      4676      4675      4677
      4676      4675      4678      4677      4675      4678      4678      4681      4682
      4678      4681      4683      4678      4681      4684      4679      4678      4680
      4679      4678      4681      4680      4678      4681      4681      4684      4685
      4681      4684      4686      4681      4684      4687      4682      4681      4683
      4682      4681      4684      4683      4681      4684      4684      4687      4688
      4684      4687      4689      4685      4684      4686      4685      4684      4687
      4686      4684      4687      4687      4689      4690      4687      4689      4691
      4688      4687      4689      4689      4691      4692      4689      4691      4693
      4689      4691      4694      4690      4689      4691      4691      4694      4695
      4691      4694      4696      4691      4694      4697      4692      4691      4693
      4692      4691      4694      4693      4691      4694      4694      4697      4698
      4694      4697      4699      4694      4697      4700      4695      4694      4696
      4695      4694      4697      4696      4694      4697      4697      4700      4701
      4697      4700      4702      4697      4700      4703      4698      4697      4699
      4698      4697      4700      4699      4697      4700      4700      4703      4704
      4700      4703      4705      4700      4703      4706      4701      4700      4702
      4701      4700      4703      4702      4700      4703      4703      4706      4707
      4703      4706      4708      4703      4706      4709      4704      4703      4705
      4704      4703      4706      4705      4703      4706      4706      4709      4710
      4706      4709      4711      4706      4709      4712      4707      4706      4708
      4707      4706      4709      4708      4706      4709      4709      4712      4713
      4709      4712      4714      4709      4712      4715      4710      4709      4711
      4710      4709      4712      4711      4709      4712      4713      4712      4714
      4713      4712      4715      4714      4712      4715      4716      4719      4720
      4716      4719      4721      4716      4719      4722      4717      4716      4718
      4717      4716      4719      4718      4716      4719      4719      4722      4723
      4719      4722      4724      4719      4722      4725      4720      4719      4721
      4720      4719      4722      4721      4719      4722      4722      4725      4726
      4722      4725      4727      4722      4725      4728      4723      4722      4724
      4723      4722      4725      4724      4722      4725      4725      4728      4729
      4725      4728      4730      4725      4728      4731      4726      4725      4727
      4726      4725      4728      4727      4725      4728      4728      4731      4732
      4728      4731      4733      4728      4731      4734      4729      4728      4730
      4729      4728      4731      4730      4728      4731      4731      4734      4735
      4731      4734      4736      4731      4734      4737      4732      4731      4733
      4732      4731      4734      4733      4731      4734      4734      4737      4738
      4734      4737      4739      4734      4737      4740      4735      4734      4736
      4735      4734      4737      4736      4734      4737      4737      4740      4741
      4737      4740      4742      4737      4740      4743      4738      4737      4739
      4738      4737      4740      4739      4737      4740      4740      4743      4744
      4740      4743      4745      4740      4743      4746      4741      4740      4742
      4741      4740      4743      4742      4740      4743      4743      4746      4747
      4743      4746      4748      4743      4746      4749      4744      4743      4745
      4744      4743      4746      4745      4743      4746      4746      4749      4750
      4746      4749      4751      4746      4749      4752      4747      4746      4748
      4747      4746      4749      4748      4746      4749      4749      4752      4753
      4749      4752      4754      4749      4752      4755      4750      4749      4751
      4750      4749      4752      4751      4749      4752      4752      4755      4756
      4752      4755      4757      4752      4755      4758      4753      4752      4754
      4753      4752      4755      4754      4752      4755      4756      4755      4757
      4756      4755      4758      4757      4755      4758      4759      4760      4761
      4759      4760      4762      4759      4760      4775      4759      4763      4764
      4759      4763      4765      4759      4763      4766      4759      4767      4768
      4759      4767      4769      4759      4767      4770      4759      4771      4772
      4759      4771      4773      4759      4771      4774      4760      4759      4763
      4760      4759      4767      4760      4759      4771      4760      4775      4776
      4760      4775      4777      4760      4775      4781      4761      4760      4762
      4761      4760      4775      4762      4760      4775      4763      4759      4767
      4763      4759      4771      4764      4763      4765      4764      4763      4766
      4765      4763      4766      4767      4759      4771      4768      4767      4769
      4768      4767      4770      4769      4767      4770      4772      4771      4773
      4772      4771      4774      4773      4771      4774      4775      4781      4778
      4776      4775      4777      4776      4775      4781      4777      4775      4781
      4778      4782      4783      4779      4778      4780      4779      4778      4781
      4779      4778      4782      4780      4778      4781      4780      4778      4782
      4781      4778      4782      4782      4783      4784      4782      4783      4785
      4782      4783      4786      4783      4786      4787      4783      4786      4788
      4783      4786      4794      4784      4783      4785      4784      4783      4786
      4785      4783      4786      4786      4788      4789      4786      4794      4795
      4786      4794      4796      4786      4794      4797      4787      4786      4788
      4787      4786      4794      4788      4786      4794      4788      4789      4790
      4788      4789      4791      4789      4791      4792      4789      4791      4793
      4789      4791      4803      4790      4789      4791      4791      4803      4804
      4791      4803      4805      4791      4803      4806      4792      4791      4793
      4792      4791      4803      4793      4791      4803      4794      4797      4798
      4795      4794      4796      4795      4794      4797      4796      4794      4797
      4797      4798      4799      4797      4798      4800      4798      4800      4801
      4798      4800      4802      4798      4800      4850      4799      4798      4800
      4800      4850      4851      4800      4850      4852      4800      4850      4853
      4801      4800      4802      4801      4800      4850      4802      4800      4850
      4803      4806      4807      4803      4806      4808      4803      4806      4809
      4804      4803      4805      4804      4803      4806      4805      4803      4806
      4806      4809      4810      4806      4809      4811      4806      4809      4812
      4807      4806      4808      4807      4806      4809      4808      4806      4809
      4809      4812      4813      4809      4812      4814      4809      4812      4815
      4810      4809      4811      4810      4809      4812      4811      4809      4812
      4812      4815      4816      4812      4815      4817      4812      4815      4818
      4813      4812      4814      4813      4812      4815      4814      4812      4815
      4815      4818      4819      4815      4818      4820      4815      4818      4821
      4816      4815      4817      4816      4815      4818      4817      4815      4818
      4818      4821      4822      4818      4821      4823      4819      4818      4820
      4819      4818      4821      4820      4818      4821      4821      4823      4824
      4821      4823      4825      4822      4821      4823      4823      4825      4826
      4823      4825      4827      4823      4825      4828      4824      4823      4825
      4825      4828      4829      4825      4828      4830      4825      4828      4831
      4826      4825      4827      4826      4825      4828      4827      4825      4828
      4828      4831      4832      4828      4831      4833      4828      4831      4834
      4829      4828      4830      4829      4828      4831      4830      4828      4831
      4831      4834      4835      4831      4834      4836      4831      4834      4837
      4832      4831      4833      4832      4831      4834      4833      4831      4834
      4834      4837      4838      4834      4837      4839      4834      4837      4840
      4835      4834      4836      4835      4834      4837      4836      4834      4837
      4837      4840      4841      4837      4840      4842      4837      4840      4843
      4838      4837      4839      4838      4837      4840      4839      4837      4840
      4840      4843      4844      4840      4843      4845      4840      4843      4846
      4841      4840      4842      4841      4840      4843      4842      4840      4843
      4843      4846      4847      4843      4846      4848      4843      4846      4849
      4844      4843      4845      4844      4843      4846      4845      4843      4846
      4847      4846      4848      4847      4846      4849      4848      4846      4849
      4850      4853      4854      4850      4853      4855      4850      4853      4856
      4851      4850      4852      4851      4850      4853      4852      4850      4853
      4853      4856      4857      4853      4856      4858      4853      4856      4859
      4854      4853      4855      4854      4853      4856      4855      4853      4856
      4856      4859      4860      4856      4859      4861      4856      4859      4862
      4857      4856      4858      4857      4856      4859      4858      4856      4859
      4859      4862      4863      4859      4862      4864      4859      4862      4865
      4860      4859      4861      4860      4859      4862      4861      4859      4862
      4862      4865      4866      4862      4865      4867      4862      4865      4868
      4863      4862      4864      4863      4862      4865      4864      4862      4865
      4865      4868      4869      4865      4868      4870      4865      4868      4871
      4866      4865      4867      4866      4865      4868      4867      4865      4868
      4868      4871      4872      4868      4871      4873      4868      4871      4874
      4869      4868      4870      4869      4868      4871      4870      4868      4871
      4871      4874      4875      4871      4874      4876      4871      4874      4877
      4872      4871      4873      4872      4871      4874      4873      4871      4874
      4874      4877      4878      4874      4877      4879      4874      4877      4880
      4875      4874      4876      4875      4874      4877      4876      4874      4877
      4877      4880      4881      4877      4880      4882      4877      4880      4883
      4878      4877      4879      4878      4877      4880      4879      4877      4880
      4880      4883      4884      4880      4883      4885      4880      4883      4886
      4881      4880      4882      4881      4880      4883      4882      4880      4883
      4883      4886      4887      4883      4886      4888      4883      4886      4889
      4884      4883      4885      4884      4883      4886      4885      4883      4886
      4886      4889      4890      4886      4889      4891      4886      4889      4892
      4887      4886      4888      4887      4886      4889      4888      4886      4889
      4890      4889      4891      4890      4889      4892      4891      4889      4892
      4893      4894      4895      4893      4894      4896      4893      4894      4909
      4893      4897      4898      4893      4897      4899      4893      4897      4900
      4893      4901      4902      4893      4901      4903      4893      4901      4904
      4893      4905      4906      4893      4905      4907      4893      4905      4908
      4894      4893      4897      4894      4893      4901      4894      4893      4905
      4894      4909      4910      4894      4909      4911      4894      4909      4915
      4895      4894      4896      4895      4894      4909      4896      4894      4909
      4897      4893      4901      4897      4893      4905      4898      4897      4899
      4898      4897      4900      4899      4897      4900      4901      4893      4905
      4902      4901      4903      4902      4901      4904      4903      4901      4904
      4906      4905      4907      4906      4905      4908      4907      4905      4908
      4909      4915      4912      4910      4909      4911      4910      4909      4915
      4911      4909      4915      4912      4916      4917      4913      4912      4914
      4913      4912      4915      4913      4912      4916      4914      4912      4915
      4914      4912      4916      4915      4912      4916      4916      4917      4918
      4916      4917      4919      4916      4917      4920      4917      4920      4921
      4917      4920      4922      4917      4920      4928      4918      4917      4919
      4918      4917      4920      4919      4917      4920      4920      4922      4923
      4920      4928      4929      4920      4928      4930      4920      4928      4931
      4921      4920      4922      4921      4920      4928      4922      4920      4928
      4922      4923      4924      4922      4923      4925      4923      4925      4926
      4923      4925      4927      4923      4925      4937      4924      4923      4925
      4925      4937      4938      4925      4937      4939      4925      4937      4940
      4926      4925      4927      4926      4925      4937      4927      4925      4937
      4928      4931      4932      4929      4928      4930      4929      4928      4931
      4930      4928      4931      4931      4932      4933      4931      4932      4934
      4932      4934      4935      4932      4934      4936      4932      4934      4984
      4933      4932      4934      4934      4984      4985      4934      4984      4986
      4934      4984      4987      4935      4934      4936      4935      4934      4984
      4936      4934      4984      4937      4940      4941      4937      4940      4942
      4937      4940      4943      4938      4937      4939      4938      4937      4940
      4939      4937      4940      4940      4943      4944      4940      4943      4945
      4940      4943      4946      4941      4940      4942      4941      4940      4943
      4942      4940      4943      4943      4946      4947      4943      4946      4948
      4943      4946      4949      4944      4943      4945      4944      4943      4946
      4945      4943      4946      4946      4949      4950      4946      4949      4951
      4946      4949      4952      4947      4946      4948      4947      4946      4949
      4948      4946      4949      4949      4952      4953      4949      4952      4954
      4949      4952      4955      4950      4949      4951      4950      4949      4952
      4951      4949      4952      4952      4955      4956      4952      4955      4957
      4953      4952      4954      4953      4952      4955      4954      4952      4955
      4955      4957      4958      4955      4957      4959      4956      4955      4957
      4957      4959      4960      4957      4959      4961      4957      4959      4962
      4958      4957      4959      4959      4962      4963      4959      4962      4964
      4959      4962      4965      4960      4959      4961      4960      4959      4962
      4961      4959      4962      4962      4965      4966      4962      4965      4967
      4962      4965      4968      4963      4962      4964      4963      4962      4965
      4964      4962      4965      4965      4968      4969      4965      4968      4970
      4965      4968      4971      4966      4965      4967      4966      4965      4968
      4967      4965      4968      4968      4971      4972      4968      4971      4973
      4968      4971      4974      4969      4968      4970      4969      4968      4971
      4970      4968      4971      4971      4974      4975      4971      4974      4976
      4971      4974      4977      4972      4971      4973      4972      4971      4974
      4973      4971      4974      4974      4977      4978      4974      4977      4979
      4974      4977      4980      4975      4974      4976      4975      4974      4977
      4976      4974      4977      4977      4980      4981      4977      4980      4982
      4977      4980      4983      4978      4977      4979      4978      4977      4980
      4979      4977      4980      4981      4980      4982      4981      4980      4983
      4982      4980      4983      4984      4987      4988      4984      4987      4989
      4984      4987      4990      4985      4984      4986      4985      4984      4987
      4986      4984      4987      4987      4990      4991      4987      4990      4992
      4987      4990      4993      4988      4987      4989      4988      4987      4990
      4989      4987      4990      4990      4993      4994      4990      4993      4995
      4990      4993      4996      4991      4990      4992      4991      4990      4993
      4992      4990      4993      4993      4996      4997      4993      4996      4998
      4993      4996      4999      4994      4993      4995      4994      4993      4996
      4995      4993      4996      4996      4999      5000      4996      4999      5001
      4996      4999      5002      4997      4996      4998      4997      4996      4999
      4998      4996      4999      4999      5002      5003      4999      5002      5004
      4999      5002      5005      5000      4999      5001      5000      4999      5002
      5001      4999      5002      5002      5005      5006      5002      5005      5007
      5002      5005      5008      5003      5002      5004      5003      5002      5005
      5004      5002      5005      5005      5008      5009      5005      5008      5010
      5005      5008      5011      5006      5005      5007      5006      5005      5008
      5007      5005      5008      5008      5011      5012      5008      5011      5013
      5008      5011      5014      5009      5008      5010      5009      5008      5011
      5010      5008      5011      5011      5014      5015      5011      5014      5016
      5011      5014      5017      5012      5011      5013      5012      5011      5014
      5013      5011      5014      5014      5017      5018      5014      5017      5019
      5014      5017      5020      5015      5014      5016      5015      5014      5017
      5016      5014      5017      5017      5020      5021      5017      5020      5022
      5017      5020      5023      5018      5017      5019      5018      5017      5020
      5019      5017      5020      5020      5023      5024      5020      5023      5025
      5020      5023      5026      5021      5020      5022      5021      5020      5023
      5022      5020      5023      5024      5023      5025      5024      5023      5026
      5025      5023      5026      5027      5028      5029      5027      5028      5030
      5027      5028      5043      5027      5031      5032      5027      5031      5033
      5027      5031      5034      5027      5035      5036      5027      5035      5037
      5027      5035      5038      5027      5039      5040      5027      5039      5041
      5027      5039      5042      5028      5027      5031      5028      5027      5035
      5028      5027      5039      5028      5043      5044      5028      5043      5045
      5028      5043      5049      5029      5028      5030      5029      5028      5043
      5030      5028      5043      5031      5027      5035      5031      5027      5039
      5032      5031      5033      5032      5031      5034      5033      5031      5034
      5035      5027      5039      5036      5035      5037      5036      5035      5038
      5037      5035      5038      5040      5039      5041      5040      5039      5042
      5041      5039      5042      5043      5049      5046      5044      5043      5045
      5044      5043      5049      5045      5043      5049      5046      5050      5051
      5047      5046      5048      5047      5046      5049      5047      5046      5050
      5048      5046      5049      5048      5046      5050      5049      5046      5050
      5050      5051      5052      5050      5051      5053      5050      5051      5054
      5051      5054      5055      5051      5054      5056      5051      5054      5062
      5052      5051      5053      5052      5051      5054      5053      5051      5054
      5054      5056      5057      5054      5062      5063      5054      5062      5064
      5054      5062      5065      5055      5054      5056      5055      5054      5062
      5056      5054      5062      5056      5057      5058      5056      5057      5059
      5057      5059      5060      5057      5059      5061      5057      5059      5071
      5058      5057      5059      5059      5071      5072      5059      5071      5073
      5059      5071      5074      5060      5059      5061      5060      5059      5071
      5061      5059      5071      5062      5065      5066      5063      5062      5064
      5063      5062      5065      5064      5062      5065      5065      5066      5067
      5065      5066      5068      5066      5068      5069      5066      5068      5070
      5066      5068      5118      5067      5066      5068      5068      5118      5119
      5068      5118      5120      5068      5118      5121      5069      5068      5070
      5069      5068      5118      5070      5068      5118      5071      5074      5075
      5071      5074      5076      5071      5074      5077      5072      5071      5073
      5072      5071      5074      5073      5071      5074      5074      5077      5078
      5074      5077      5079      5074      5077      5080      5075      5074      5076
      5075      5074      5077      5076      5074      5077      5077      5080      5081
      5077      5080      5082      5077      5080      5083      5078      5077      5079
      5078      5077      5080      5079      5077      5080      5080      5083      5084
      5080      5083      5085      5080      5083      5086      5081      5080      5082
      5081      5080      5083      5082      5080      5083      5083      5086      5087
      5083      5086      5088      5083      5086      5089      5084      5083      5085
      5084      5083      5086      5085      5083      5086      5086      5089      5090
      5086      5089      5091      5087      5086      5088      5087      5086      5089
      5088      5086      5089      5089      5091      5092      5089      5091      5093
      5090      5089      5091      5091      5093      5094      5091      5093      5095
      5091      5093      5096      5092      5091      5093      5093      5096      5097
      5093      5096      5098      5093      5096      5099      5094      5093      5095
      5094      5093      5096      5095      5093      5096      5096      5099      5100
      5096      5099      5101      5096      5099      5102      5097      5096      5098
      5097      5096      5099      5098      5096      5099      5099      5102      5103
      5099      5102      5104      5099      5102      5105      5100      5099      5101
      5100      5099      5102      5101      5099      5102      5102      5105      5106
      5102      5105      5107      5102      5105      5108      5103      5102      5104
      5103      5102      5105      5104      5102      5105      5105      5108      5109
      5105      5108      5110      5105      5108      5111      5106      5105      5107
      5106      5105      5108      5107      5105      5108      5108      5111      5112
      5108      5111      5113      5108      5111      5114      5109      5108      5110
      5109      5108      5111      5110      5108      5111      5111      5114      5115
      5111      5114      5116      5111      5114      5117      5112      5111      5113
      5112      5111      5114      5113      5111      5114      5115      5114      5116
      5115      5114      5117      5116      5114      5117      5118      5121      5122
      5118      5121      5123      5118      5121      5124      5119      5118      5120
      5119      5118      5121      5120      5118      5121      5121      5124      5125
      5121      5124      5126      5121      5124      5127      5122      5121      5123
      5122      5121      5124      5123      5121      5124      5124      5127      5128
      5124      5127      5129      5124      5127      5130      5125      5124      5126
      5125      5124      5127      5126      5124      5127      5127      5130      5131
      5127      5130      5132      5127      5130      5133      5128      5127      5129
      5128      5127      5130      5129      5127      5130      5130      5133      5134
      5130      5133      5135      5130      5133      5136      5131      5130      5132
      5131      5130      5133      5132      5130      5133      5133      5136      5137
      5133      5136      5138      5133      5136      5139      5134      5133      5135
      5134      5133      5136      5135      5133      5136      5136      5139      5140
      5136      5139      5141      5136      5139      5142      5137      5136      5138
      5137      5136      5139      5138      5136      5139      5139      5142      5143
      5139      5142      5144      5139      5142      5145      5140      5139      5141
      5140      5139      5142      5141      5139      5142      5142      5145      5146
      5142      5145      5147      5142      5145      5148      5143      5142      5144
      5143      5142      5145      5144      5142      5145      5145      5148      5149
      5145      5148      5150      5145      5148      5151      5146      5145      5147
      5146      5145      5148      5147      5145      5148      5148      5151      5152
      5148      5151      5153      5148      5151      5154      5149      5148      5150
      5149      5148      5151      5150      5148      5151      5151      5154      5155
      5151      5154      5156      5151      5154      5157      5152      5151      5153
      5152      5151      5154      5153      5151      5154      5154      5157      5158
      5154      5157      5159      5154      5157      5160      5155      5154      5156
      5155      5154      5157      5156      5154      5157      5158      5157      5159
      5158      5157      5160      5159      5157      5160      5161      5162      5163
      5161      5162      5164      5161      5162      5177      5161      5165      5166
      5161      5165      5167      5161      5165      5168      5161      5169      5170
      5161      5169      5171      5161      5169      5172      5161      5173      5174
      5161      5173      5175      5161      5173      5176      5162      5161      5165
      5162      5161      5169      5162      5161      5173      5162      5177      5178
      5162      5177      5179      5162      5177      5183      5163      5162      5164
      5163      5162      5177      5164      5162      5177      5165      5161      5169
      5165      5161      5173      5166      5165      5167      5166      5165      5168
      5167      5165      5168      5169      5161      5173      5170      5169      5171
      5170      5169      5172      5171      5169      5172      5174      5173      5175
      5174      5173      5176      5175      5173      5176      5177      5183      5180
      5178      5177      5179      5178      5177      5183      5179      5177      5183
      5180      5184      5185      5181      5180      5182      5181      5180      5183
      5181      5180      5184      5182      5180      5183      5182      5180      5184
      5183      5180      5184      5184      5185      5186      5184      5185      5187
      5184      5185      5188      5185      5188      5189      5185      5188      5190
      5185      5188      5196      5186      5185      5187      5186      5185      5188
      5187      5185      5188      5188      5190      5191      5188      5196      5197
      5188      5196      5198      5188      5196      5199      5189      5188      5190
      5189      5188      5196      5190      5188      5196      5190      5191      5192
      5190      5191      5193      5191      5193      5194      5191      5193      5195
      5191      5193      5205      5192      5191      5193      5193      5205      5206
      5193      5205      5207      5193      5205      5208      5194      5193      5195
      5194      5193      5205      5195      5193      5205      5196      5199      5200
      5197      5196      5198      5197      5196      5199      5198      5196      5199
      5199      5200      5201      5199      5200      5202      5200      5202      5203
      5200      5202      5204      5200      5202      5252      5201      5200      5202
      5202      5252      5253      5202      5252      5254      5202      5252      5255
      5203      5202      5204      5203      5202      5252      5204      5202      5252
      5205      5208      5209      5205      5208      5210      5205      5208      5211
      5206      5205      5207      5206      5205      5208      5207      5205      5208
      5208      5211      5212      5208      5211      5213      5208      5211      5214
      5209      5208      5210      5209      5208      5211      5210      5208      5211
      5211      5214      5215      5211      5214      5216      5211      5214      5217
      5212      5211      5213      5212      5211      5214      5213      5211      5214
      5214      5217      5218      5214      5217      5219      5214      5217      5220
      5215      5214      5216      5215      5214      5217      5216      5214      5217
      5217      5220      5221      5217      5220      5222      5217      5220      5223
      5218      5217      5219      5218      5217      5220      5219      5217      5220
      5220      5223      5224      5220      5223      5225      5221      5220      5222
      5221      5220      5223      5222      5220      5223      5223      5225      5226
      5223      5225      5227      5224      5223      5225      5225      5227      5228
      5225      5227      5229      5225      5227      5230      5226      5225      5227
      5227      5230      5231      5227      5230      5232      5227      5230      5233
      5228      5227      5229      5228      5227      5230      5229      5227      5230
      5230      5233      5234      5230      5233      5235      5230      5233      5236
      5231      5230      5232      5231      5230      5233      5232      5230      5233
      5233      5236      5237      5233      5236      5238      5233      5236      5239
      5234      5233      5235      5234      5233      5236      5235      5233      5236
      5236      5239      5240      5236      5239      5241      5236      5239      5242
      5237      5236      5238      5237      5236      5239      5238      5236      5239
      5239      5242      5243      5239      5242      5244      5239      5242      5245
      5240      5239      5241      5240      5239      5242      5241      5239      5242
      5242      5245      5246      5242      5245      5247      5242      5245      5248
      5243      5242      5244      5243      5242      5245      5244      5242      5245
      5245      5248      5249      5245      5248      5250      5245      5248      5251
      5246      5245      5247      5246      5245      5248      5247      5245      5248
      5249      5248      5250      5249      5248      5251      5250      5248      5251
      5252      5255      5256      5252      5255      5257      5252      5255      5258
      5253      5252      5254      5253      5252      5255      5254      5252      5255
      5255      5258      5259      5255      5258      5260      5255      5258      5261
      5256      5255      5257      5256      5255      5258      5257      5255      5258
      5258      5261      5262      5258      5261      5263      5258      5261      5264
      5259      5258      5260      5259      5258      5261      5260      5258      5261
      5261      5264      5265      5261      5264      5266      5261      5264      5267
      5262      5261      5263      5262      5261      5264      5263      5261      5264
      5264      5267      5268      5264      5267      5269      5264      5267      5270
      5265      5264      5266      5265      5264      5267      5266      5264      5267
      5267      5270      5271      5267      5270      5272      5267      5270      5273
      5268      5267      5269      5268      5267      5270      5269      5267      5270
      5270      5273      5274      5270      5273      5275      5270      5273      5276
      5271      5270      5272      5271      5270      5273      5272      5270      5273
      5273      5276      5277      5273      5276      5278      5273      5276      5279
      5274      5273      5275      5274      5273      5276      5275      5273      5276
      5276      5279      5280      5276      5279      5281      5276      5279      5282
      5277      5276      5278      5277      5276      5279      5278      5276      5279
      5279      5282      5283      5279      5282      5284      5279      5282      5285
      5280      5279      5281      5280      5279      5282      5281      5279      5282
      5282      5285      5286      5282      5285      5287      5282      5285      5288
      5283      5282      5284      5283      5282      5285      5284      5282      5285
      5285      5288      5289      5285      5288      5290      5285      5288      5291
      5286      5285      5287      5286      5285      5288      5287      5285      5288
      5288      5291      5292      5288      5291      5293      5288      5291      5294
      5289      5288      5290      5289      5288      5291      5290      5288      5291
      5292      5291      5293      5292      5291      5294      5293      5291      5294
      5295      5296      5297      5295      5296      5298      5295      5296      5311
      5295      5299      5300      5295      5299      5301      5295      5299      5302
      5295      5303      5304      5295      5303      5305      5295      5303      5306
      5295      5307      5308      5295      5307      5309      5295      5307      5310
      5296      5295      5299      5296      5295      5303      5296      5295      5307
      5296      5311      5312      5296      5311      5313      5296      5311      5317
      5297      5296      5298      5297      5296      5311      5298      5296      5311
      5299      5295      5303      5299      5295      5307      5300      5299      5301
      5300      5299      5302      5301      5299      5302      5303      5295      5307
      5304      5303      5305      5304      5303      5306      5305      5303      5306
      5308      5307      5309      5308      5307      5310      5309      5307      5310
      5311      5317      5314      5312      5311      5313      5312      5311      5317
      5313      5311      5317      5314      5318      5319      5315      5314      5316
      5315      5314      5317      5315      5314      5318      5316      5314      5317
      5316      5314      5318      5317      5314      5318      5318      5319      5320
      5318      5319      5321      5318      5319      5322      5319      5322      5323
      5319      5322      5324      5319      5322      5330      5320      5319      5321
      5320      5319      5322      5321      5319      5322      5322      5324      5325
      5322      5330      5331      5322      5330      5332      5322      5330      5333
      5323      5322      5324      5323      5322      5330      5324      5322      5330
      5324      5325      5326      5324      5325      5327      5325      5327      5328
      5325      5327      5329      5325      5327      5339      5326      5325      5327
      5327      5339      5340      5327      5339      5341      5327      5339      5342
      5328      5327      5329      5328      5327      5339      5329      5327      5339
      5330      5333      5334      5331      5330      5332      5331      5330      5333
      5332      5330      5333      5333      5334      5335      5333      5334      5336
      5334      5336      5337      5334      5336      5338      5334      5336      5386
      5335      5334      5336      5336      5386      5387      5336      5386      5388
      5336      5386      5389      5337      5336      5338      5337      5336      5386
      5338      5336      5386      5339      5342      5343      5339      5342      5344
      5339      5342      5345      5340      5339      5341      5340      5339      5342
      5341      5339      5342      5342      5345      5346      5342      5345      5347
      5342      5345      5348      5343      5342      5344      5343      5342      5345
      5344      5342      5345      5345      5348      5349      5345      5348      5350
      5345      5348      5351      5346      5345      5347      5346      5345      5348
      5347      5345      5348      5348      5351      5352      5348      5351      5353
      5348      5351      5354      5349      5348      5350      5349      5348      5351
      5350      5348      5351      5351      5354      5355      5351      5354      5356
      5351      5354      5357      5352      5351      5353      5352      5351      5354
      5353      5351      5354      5354      5357      5358      5354      5357      5359
      5355      5354      5356      5355      5354      5357      5356      5354      5357
      5357      5359      5360      5357      5359      5361      5358      5357      5359
      5359      5361      5362      5359      5361      5363      5359      5361      5364
      5360      5359      5361      5361      5364      5365      5361      5364      5366
      5361      5364      5367      5362      5361      5363      5362      5361      5364
      5363      5361      5364      5364      5367      5368      5364      5367      5369
      5364      5367      5370      5365      5364      5366      5365      5364      5367
      5366      5364      5367      5367      5370      5371      5367      5370      5372
      5367      5370      5373      5368      5367      5369      5368      5367      5370
      5369      5367      5370      5370      5373      5374      5370      5373      5375
      5370      5373      5376      5371      5370      5372      5371      5370      5373
      5372      5370      5373      5373      5376      5377      5373      5376      5378
      5373      5376      5379      5374      5373      5375      5374      5373      5376
      5375      5373      5376      5376      5379      5380      5376      5379      5381
      5376      5379      5382      5377      5376      5378      5377      5376      5379
      5378      5376      5379      5379      5382      5383      5379      5382      5384
      5379      5382      5385      5380      5379      5381      5380      5379      5382
      5381      5379      5382      5383      5382      5384      5383      5382      5385
      5384      5382      5385      5386      5389      5390      5386      5389      5391
      5386      5389      5392      5387      5386      5388      5387      5386      5389
      5388      5386      5389      5389      5392      5393      5389      5392      5394
      5389      5392      5395      5390      5389      5391      5390      5389      5392
      5391      5389      5392      5392      5395      5396      5392      5395      5397
      5392      5395      5398      5393      5392      5394      5393      5392      5395
      5394      5392      5395      5395      5398      5399      5395      5398      5400
      5395      5398      5401      5396      5395      5397      5396      5395      5398
      5397      5395      5398      5398      5401      5402      5398      5401      5403
      5398      5401      5404      5399      5398      5400      5399      5398      5401
      5400      5398      5401      5401      5404      5405      5401      5404      5406
      5401      5404      5407      5402      5401      5403      5402      5401      5404
      5403      5401      5404      5404      5407      5408      5404      5407      5409
      5404      5407      5410      5405      5404      5406      5405      5404      5407
      5406      5404      5407      5407      5410      5411      5407      5410      5412
      5407      5410      5413      5408      5407      5409      5408      5407      5410
      5409      5407      5410      5410      5413      5414      5410      5413      5415
      5410      5413      5416      5411      5410      5412      5411      5410      5413
      5412      5410      5413      5413      5416      5417      5413      5416      5418
      5413      5416      5419      5414      5413      5415      5414      5413      5416
      5415      5413      5416      5416      5419      5420      5416      5419      5421
      5416      5419      5422      5417      5416      5418      5417      5416      5419
      5418      5416      5419      5419      5422      5423      5419      5422      5424
      5419      5422      5425      5420      5419      5421      5420      5419      5422
      5421      5419      5422      5422      5425      5426      5422      5425      5427
      5422      5425      5428      5423      5422      5424      5423      5422      5425
      5424      5422      5425      5426      5425      5427      5426      5425      5428
      5427      5425      5428      5429      5430      5431      5429      5430      5432
      5429      5430      5445      5429      5433      5434      5429      5433      5435
      5429      5433      5436      5429      5437      5438      5429      5437      5439
      5429      5437      5440      5429      5441      5442      5429      5441      5443
      5429      5441      5444      5430      5429      5433      5430      5429      5437
      5430      5429      5441      5430      5445      5446      5430      5445      5447
      5430      5445      5451      5431      5430      5432      5431      5430      5445
      5432      5430      5445      5433      5429      5437      5433      5429      5441
      5434      5433      5435      5434      5433      5436      5435      5433      5436
      5437      5429      5441      5438      5437      5439      5438      5437      5440
      5439      5437      5440      5442      5441      5443      5442      5441      5444
      5443      5441      5444      5445      5451      5448      5446      5445      5447
      5446      5445      5451      5447      5445      5451      5448      5452      5453
      5449      5448      5450      5449      5448      5451      5449      5448      5452
      5450      5448      5451      5450      5448      5452      5451      5448      5452
      5452      5453      5454      5452      5453      5455      5452      5453      5456
      5453      5456      5457      5453      5456      5458      5453      5456      5464
      5454      5453      5455      5454      5453      5456      5455      5453      5456
      5456      5458      5459      5456      5464      5465      5456      5464      5466
      5456      5464      5467      5457      5456      5458      5457      5456      5464
      5458      5456      5464      5458      5459      5460      5458      5459      5461
      5459      5461      5462      5459      5461      5463      5459      5461      5473
      5460      5459      5461      5461      5473      5474      5461      5473      5475
      5461      5473      5476      5462      5461      5463      5462      5461      5473
      5463      5461      5473      5464      5467      5468      5465      5464      5466
      5465      5464      5467      5466      5464      5467      5467      5468      5469
      5467      5468      5470      5468      5470      5471      5468      5470      5472
      5468      5470      5520      5469      5468      5470      5470      5520      5521
      5470      5520      5522      5470      5520      5523      5471      5470      5472
      5471      5470      5520      5472      5470      5520      5473      5476      5477
      5473      5476      5478      5473      5476      5479      5474      5473      5475
      5474      5473      5476      5475      5473      5476      5476      5479      5480
      5476      5479      5481      5476      5479      5482      5477      5476      5478
      5477      5476      5479      5478      5476      5479      5479      5482      5483
      5479      5482      5484      5479      5482      5485      5480      5479      5481
      5480      5479      5482      5481      5479      5482      5482      5485      5486
      5482      5485      5487      5482      5485      5488      5483      5482      5484
      5483      5482      5485      5484      5482      5485      5485      5488      5489
      5485      5488      5490      5485      5488      5491      5486      5485      5487
      5486      5485      5488      5487      5485      5488      5488      5491      5492
      5488      5491      5493      5489      5488      5490      5489      5488      5491
      5490      5488      5491      5491      5493      5494      5491      5493      5495
      5492      5491      5493      5493      5495      5496      5493      5495      5497
      5493      5495      5498      5494      5493      5495      5495      5498      5499
      5495      5498      5500      5495      5498      5501      5496      5495      5497
      5496      5495      5498      5497      5495      5498      5498      5501      5502
      5498      5501      5503      5498      5501      5504      5499      5498      5500
      5499      5498      5501      5500      5498      5501      5501      5504      5505
      5501      5504      5506      5501      5504      5507      5502      5501      5503
      5502      5501      5504      5503      5501      5504      5504      5507      5508
      5504      5507      5509      5504      5507      5510      5505      5504      5506
      5505      5504      5507      5506      5504      5507      5507      5510      5511
      5507      5510      5512      5507      5510      5513      5508      5507      5509
      5508      5507      5510      5509      5507      5510      5510      5513      5514
      5510      5513      5515      5510      5513      5516      5511      5510      5512
      5511      5510      5513      5512      5510      5513      5513      5516      5517
      5513      5516      5518      5513      5516      5519      5514      5513      5515
      5514      5513      5516      5515      5513      5516      5517      5516      5518
      5517      5516      5519      5518      5516      5519      5520      5523      5524
      5520      5523      5525      5520      5523      5526      5521      5520      5522
      5521      5520      5523      5522      5520      5523      5523      5526      5527
      5523      5526      5528      5523      5526      5529      5524      5523      5525
      5524      5523      5526      5525      5523      5526      5526      5529      5530
      5526      5529      5531      5526      5529      5532      5527      5526      5528
      5527      5526      5529      5528      5526      5529      5529      5532      5533
      5529      5532      5534      5529      5532      5535      5530      5529      5531
      5530      5529      5532      5531      5529      5532      5532      5535      5536
      5532      5535      5537      5532      5535      5538      5533      5532      5534
      5533      5532      5535      5534      5532      5535      5535      5538      5539
      5535      5538      5540      5535      5538      5541      5536      5535      5537
      5536      5535      5538      5537      5535      5538      5538      5541      5542
      5538      5541      5543      5538      5541      5544      5539      5538      5540
      5539      5538      5541      5540      5538      5541      5541      5544      5545
      5541      5544      5546      5541      5544      5547      5542      5541      5543
      5542      5541      5544      5543      5541      5544      5544      5547      5548
      5544      5547      5549      5544      5547      5550      5545      5544      5546
      5545      5544      5547      5546      5544      5547      5547      5550      5551
      5547      5550      5552      5547      5550      5553      5548      5547      5549
      5548      5547      5550      5549      5547      5550      5550      5553      5554
      5550      5553      5555      5550      5553      5556      5551      5550      5552
      5551      5550      5553      5552      5550      5553      5553      5556      5557
      5553      5556      5558      5553      5556      5559      5554      5553      5555
      5554      5553      5556      5555      5553      5556      5556      5559      5560
      5556      5559      5561      5556      5559      5562      5557      5556      5558
      5557      5556      5559      5558      5556      5559      5560      5559      5561
      5560      5559      5562      5561      5559      5562      5563      5564      5565
      5563      5564      5566      5563      5564      5579      5563      5567      5568
      5563      5567      5569      5563      5567      5570      5563      5571      5572
      5563      5571      5573      5563      5571      5574      5563      5575      5576
      5563      5575      5577      5563      5575      5578      5564      5563      5567
      5564      5563      5571      5564      5563      5575      5564      5579      5580
      5564      5579      5581      5564      5579      5585      5565      5564      5566
      5565      5564      5579      5566      5564      5579      5567      5563      5571
      5567      5563      5575      5568      5567      5569      5568      5567      5570
      5569      5567      5570      5571      5563      5575      5572      5571      5573
      5572      5571      5574      5573      5571      5574      5576      5575      5577
      5576      5575      5578      5577      5575      5578      5579      5585      5582
      5580      5579      5581      5580      5579      5585      5581      5579      5585
      5582      5586      5587      5583      5582      5584      5583      5582      5585
      5583      5582      5586      5584      5582      5585      5584      5582      5586
      5585      5582      5586      5586      5587      5588      5586      5587      5589
      5586      5587      5590      5587      5590      5591      5587      5590      5592
      5587      5590      5598      5588      5587      5589      5588      5587      5590
      5589      5587      5590      5590      5592      5593      5590      5598      5599
      5590      5598      5600      5590      5598      5601      5591      5590      5592
      5591      5590      5598      5592      5590      5598      5592      5593      5594
      5592      5593      5595      5593      5595      5596      5593      5595      5597
      5593      5595      5607      5594      5593      5595      5595      5607      5608
      5595      5607      5609      5595      5607      5610      5596      5595      5597
      5596      5595      5607      5597      5595      5607      5598      5601      5602
      5599      5598      5600      5599      5598      5601      5600      5598      5601
      5601      5602      5603      5601      5602      5604      5602      5604      5605
      5602      5604      5606      5602      5604      5654      5603      5602      5604
      5604      5654      5655      5604      5654      5656      5604      5654      5657
      5605      5604      5606      5605      5604      5654      5606      5604      5654
      5607      5610      5611      5607      5610      5612      5607      5610      5613
      5608      5607      5609      5608      5607      5610      5609      5607      5610
      5610      5613      5614      5610      5613      5615      5610      5613      5616
      5611      5610      5612      5611      5610      5613      5612      5610      5613
      5613      5616      5617      5613      5616      5618      5613      5616      5619
      5614      5613      5615      5614      5613      5616      5615      5613      5616
      5616      5619      5620      5616      5619      5621      5616      5619      5622
      5617      5616      5618      5617      5616      5619      5618      5616      5619
      5619      5622      5623      5619      5622      5624      5619      5622      5625
      5620      5619      5621      5620      5619      5622      5621      5619      5622
      5622      5625      5626      5622      5625      5627      5623      5622      5624
      5623      5622      5625      5624      5622      5625      5625      5627      5628
      5625      5627      5629      5626      5625      5627      5627      5629      5630
      5627      5629      5631      5627      5629      5632      5628      5627      5629
      5629      5632      5633      5629      5632      5634      5629      5632      5635
      5630      5629      5631      5630      5629      5632      5631      5629      5632
      5632      5635      5636      5632      5635      5637      5632      5635      5638
      5633      5632      5634      5633      5632      5635      5634      5632      5635
      5635      5638      5639      5635      5638      5640      5635      5638      5641
      5636      5635      5637      5636      5635      5638      5637      5635      5638
      5638      5641      5642      5638      5641      5643      5638      5641      5644
      5639      5638      5640      5639      5638      5641      5640      5638      5641
      5641      5644      5645      5641      5644      5646      5641      5644      5647
      5642      5641      5643      5642      5641      5644      5643      5641      5644
      5644      5647      5648      5644      5647      5649      5644      5647      5650
      5645      5644      5646      5645      5644      5647      5646      5644      5647
      5647      5650      5651      5647      5650      5652      5647      5650      5653
      5648      5647      5649      5648      5647      5650      5649      5647      5650
      5651      5650      5652      5651      5650      5653      5652      5650      5653
      5654      5657      5658      5654      5657      5659      5654      5657      5660
      5655      5654      5656      5655      5654      5657      5656      5654      5657
      5657      5660      5661      5657      5660      5662      5657      5660      5663
      5658      5657      5659      5658      5657      5660      5659      5657      5660
      5660      5663      5664      5660      5663      5665      5660      5663      5666
      5661      5660      5662      5661      5660      5663      5662      5660      5663
      5663      5666      5667      5663      5666      5668      5663      5666      5669
      5664      5663      5665      5664      5663      5666      5665      5663      5666
      5666      5669      5670      5666      5669      5671      5666      5669      5672
      5667      5666      5668      5667      5666      5669      5668      5666      5669
      5669      5672      5673      5669      5672      5674      5669      5672      5675
      5670      5669      5671      5670      5669      5672      5671      5669      5672
      5672      5675      5676      5672      5675      5677      5672      5675      5678
      5673      5672      5674      5673      5672      5675      5674      5672      5675
      5675      5678      5679      5675      5678      5680      5675      5678      5681
      5676      5675      5677      5676      5675      5678      5677      5675      5678
      5678      5681      5682      5678      5681      5683      5678      5681      5684
      5679      5678      5680      5679      5678      5681      5680      5678      5681
      5681      5684      5685      5681      5684      5686      5681      5684      5687
      5682      5681      5683      5682      5681      5684      5683      5681      5684
      5684      5687      5688      5684      5687      5689      5684      5687      5690
      5685      5684      5686      5685      5684      5687      5686      5684      5687
      5687      5690      5691      5687      5690      5692      5687      5690      5693
      5688      5687      5689      5688      5687      5690      5689      5687      5690
      5690      5693      5694      5690      5693      5695      5690      5693      5696
      5691      5690      5692      5691      5690      5693      5692      5690      5693
      5694      5693      5695      5694      5693      5696      5695      5693      5696
      5697      5698      5699      5697      5698      5700      5697      5698      5713
      5697      5701      5702      5697      5701      5703      5697      5701      5704
      5697      5705      5706      5697      5705      5707      5697      5705      5708
      5697      5709      5710      5697      5709      5711      5697      5709      5712
      5698      5697      5701      5698      5697      5705      5698      5697      5709
      5698      5713      5714      5698      5713      5715      5698      5713      5719
      5699      5698      5700      5699      5698      5713      5700      5698      5713
      5701      5697      5705      5701      5697      5709      5702      5701      5703
      5702      5701      5704      5703      5701      5704      5705      5697      5709
      5706      5705      5707      5706      5705      5708      5707      5705      5708
      5710      5709      5711      5710      5709      5712      5711      5709      5712
      5713      5719      5716      5714      5713      5715      5714      5713      5719
      5715      5713      5719      5716      5720      5721      5717      5716      5718
      5717      5716      5719      5717      5716      5720      5718      5716      5719
      5718      5716      5720      5719      5716      5720      5720      5721      5722
      5720      5721      5723      5720      5721      5724      5721      5724      5725
      5721      5724      5726      5721      5724      5732      5722      5721      5723
      5722      5721      5724      5723      5721      5724      5724      5726      5727
      5724      5732      5733      5724      5732      5734      5724      5732      5735
      5725      5724      5726      5725      5724      5732      5726      5724      5732
      5726      5727      5728      5726      5727      5729      5727      5729      5730
      5727      5729      5731      5727      5729      5741      5728      5727      5729
      5729      5741      5742      5729      5741      5743      5729      5741      5744
      5730      5729      5731      5730      5729      5741      5731      5729      5741
      5732      5735      5736      5733      5732      5734      5733      5732      5735
      5734      5732      5735      5735      5736      5737      5735      5736      5738
      5736      5738      5739      5736      5738      5740      5736      5738      5788
      5737      5736      5738      5738      5788      5789      5738      5788      5790
      5738      5788      5791      5739      5738      5740      5739      5738      5788
      5740      5738      5788      5741      5744      5745      5741      5744      5746
      5741      5744      5747      5742      5741      5743      5742      5741      5744
      5743      5741      5744      5744      5747      5748      5744      5747      5749
      5744      5747      5750      5745      5744      5746      5745      5744      5747
      5746      5744      5747      5747      5750      5751      5747      5750      5752
      5747      5750      5753      5748      5747      5749      5748      5747      5750
      5749      5747      5750      5750      5753      5754      5750      5753      5755
      5750      5753      5756      5751      5750      5752      5751      5750      5753
      5752      5750      5753      5753      5756      5757      5753      5756      5758
      5753      5756      5759      5754      5753      5755      5754      5753      5756
      5755      5753      5756      5756      5759      5760      5756      5759      5761
      5757      5756      5758      5757      5756      5759      5758      5756      5759
      5759      5761      5762      5759      5761      5763      5760      5759      5761
      5761      5763      5764      5761      5763      5765      5761      5763      5766
      5762      5761      5763      5763      5766      5767      5763      5766      5768
      5763      5766      5769      5764      5763      5765      5764      5763      5766
      5765      5763      5766      5766      5769      5770      5766      5769      5771
      5766      5769      5772      5767      5766      5768      5767      5766      5769
      5768      5766      5769      5769      5772      5773      5769      5772      5774
      5769      5772      5775      5770      5769      5771      5770      5769      5772
      5771      5769      5772      5772      5775      5776      5772      5775      5777
      5772      5775      5778      5773      5772      5774      5773      5772      5775
      5774      5772      5775      5775      5778      5779      5775      5778      5780
      5775      5778      5781      5776      5775      5777      5776      5775      5778
      5777      5775      5778      5778      5781      5782      5778      5781      5783
      5778      5781      5784      5779      5778      5780      5779      5778      5781
      5780      5778      5781      5781      5784      5785      5781      5784      5786
      5781      5784      5787      5782      5781      5783      5782      5781      5784
      5783      5781      5784      5785      5784      5786      5785      5784      5787
      5786      5784      5787      5788      5791      5792      5788      5791      5793
      5788      5791      5794      5789      5788      5790      5789      5788      5791
      5790      5788      5791      5791      5794      5795      5791      5794      5796
      5791      5794      5797      5792      5791      5793      5792      5791      5794
      5793      5791      5794      5794      5797      5798      5794      5797      5799
      5794      5797      5800      5795      5794      5796      5795      5794      5797
      5796      5794      5797      5797      5800      5801      5797      5800      5802
      5797      5800      5803      5798      5797      5799      5798      5797      5800
      5799      5797      5800      5800      5803      5804      5800      5803      5805
      5800      5803      5806      5801      5800      5802      5801      5800      5803
      5802      5800      5803      5803      5806      5807      5803      5806      5808
      5803      5806      5809      5804      5803      5805      5804      5803      5806
      5805      5803      5806      5806      5809      5810      5806      5809      5811
      5806      5809      5812      5807      5806      5808      5807      5806      5809
      5808      5806      5809      5809      5812      5813      5809      5812      5814
      5809      5812      5815      5810      5809      5811      5810      5809      5812
      5811      5809      5812      5812      5815      5816      5812      5815      5817
      5812      5815      5818      5813      5812      5814      5813      5812      5815
      5814      5812      5815      5815      5818      5819      5815      5818      5820
      5815      5818      5821      5816      5815      5817      5816      5815      5818
      5817      5815      5818      5818      5821      5822      5818      5821      5823
      5818      5821      5824      5819      5818      5820      5819      5818      5821
      5820      5818      5821      5821      5824      5825      5821      5824      5826
      5821      5824      5827      5822      5821      5823      5822      5821      5824
      5823      5821      5824      5824      5827      5828      5824      5827      5829
      5824      5827      5830      5825      5824      5826      5825      5824      5827
      5826      5824      5827      5828      5827      5829      5828      5827      5830
      5829      5827      5830      5831      5832      5833      5831      5832      5834
      5831      5832      5847      5831      5835      5836      5831      5835      5837
      5831      5835      5838      5831      5839      5840      5831      5839      5841
      5831      5839      5842      5831      5843      5844      5831      5843      5845
      5831      5843      5846      5832      5831      5835      5832      5831      5839
      5832      5831      5843      5832      5847      5848      5832      5847      5849
      5832      5847      5853      5833      5832      5834      5833      5832      5847
      5834      5832      5847      5835      5831      5839      5835      5831      5843
      5836      5835      5837      5836      5835      5838      5837      5835      5838
      5839      5831      5843      5840      5839      5841      5840      5839      5842
      5841      5839      5842      5844      5843      5845      5844      5843      5846
      5845      5843      5846      5847      5853      5850      5848      5847      5849
      5848      5847      5853      5849      5847      5853      5850      5854      5855
      5851      5850      5852      5851      5850      5853      5851      5850      5854
      5852      5850      5853      5852      5850      5854      5853      5850      5854
      5854      5855      5856      5854      5855      5857      5854      5855      5858
      5855      5858      5859      5855      5858      5860      5855      5858      5866
      5856      5855      5857      5856      5855      5858      5857      5855      5858
      5858      5860      5861      5858      5866      5867      5858      5866      5868
      5858      5866      5869      5859      5858      5860      5859      5858      5866
      5860      5858      5866      5860      5861      5862      5860      5861      5863
      5861      5863      5864      5861      5863      5865      5861      5863      5875
      5862      5861      5863      5863      5875      5876      5863      5875      5877
      5863      5875      5878      5864      5863      5865      5864      5863      5875
      5865      5863      5875      5866      5869      5870      5867      5866      5868
      5867      5866      5869      5868      5866      5869      5869      5870      5871
      5869      5870      5872      5870      5872      5873      5870      5872      5874
      5870      5872      5922      5871      5870      5872      5872      5922      5923
      5872      5922      5924      5872      5922      5925      5873      5872      5874
      5873      5872      5922      5874      5872      5922      5875      5878      5879
      5875      5878      5880      5875      5878      5881      5876      5875      5877
      5876      5875      5878      5877      5875      5878      5878      5881      5882
      5878      5881      5883      5878      5881      5884      5879      5878      5880
      5879      5878      5881      5880      5878      5881      5881      5884      5885
      5881      5884      5886      5881      5884      5887      5882      5881      5883
      5882      5881      5884      5883      5881      5884      5884      5887      5888
      5884      5887      5889      5884      5887      5890      5885      5884      5886
      5885      5884      5887      5886      5884      5887      5887      5890      5891
      5887      5890      5892      5887      5890      5893      5888      5887      5889
      5888      5887      5890      5889      5887      5890      5890      5893      5894
      5890      5893      5895      5891      5890      5892      5891      5890      5893
      5892      5890      5893      5893      5895      5896      5893      5895      5897
      5894      5893      5895      5895      5897      5898      5895      5897      5899
      5895      5897      5900      5896      5895      5897      5897      5900      5901
      5897      5900      5902      5897      5900      5903      5898      5897      5899
      5898      5897      5900      5899      5897      5900      5900      5903      5904
      5900      5903      5905      5900      5903      5906      5901      5900      5902
      5901      5900      5903      5902      5900      5903      5903      5906      5907
      5903      5906      5908      5903      5906      5909      5904      5903      5905
      5904      5903      5906      5905      5903      5906      5906      5909      5910
      5906      5909      5911      5906      5909      5912      5907      5906      5908
      5907      5906      5909      5908      5906      5909      5909      5912      5913
      5909      5912      5914      5909      5912      5915      5910      5909      5911
      5910      5909      5912      5911      5909      5912      5912      5915      5916
      5912      5915      5917      5912      5915      5918      5913      5912      5914
      5913      5912      5915      5914      5912      5915      5915      5918      5919
      5915      5918      5920      5915      5918      5921      5916      5915      5917
      5916      5915      5918      5917      5915      5918      5919      5918      5920
      5919      5918      5921      5920      5918      5921      5922      5925      5926
      5922      5925      5927      5922      5925      5928      5923      5922      5924
      5923      5922      5925      5924      5922      5925      5925      5928      5929
      5925      5928      5930      5925      5928      5931      5926      5925      5927
      5926      5925      5928      5927      5925      5928      5928      5931      5932
      5928      5931      5933      5928      5931      5934      5929      5928      5930
      5929      5928      5931      5930      5928      5931      5931      5934      5935
      5931      5934      5936      5931      5934      5937      5932      5931      5933
      5932      5931      5934      5933      5931      5934      5934      5937      5938
      5934      5937      5939      5934      5937      5940      5935      5934      5936
      5935      5934      5937      5936      5934      5937      5937      5940      5941
      5937      5940      5942      5937      5940      5943      5938      5937      5939
      5938      5937      5940      5939      5937      5940      5940      5943      5944
      5940      5943      5945      5940      5943      5946      5941      5940      5942
      5941      5940      5943      5942      5940      5943      5943      5946      5947
      5943      5946      5948      5943      5946      5949      5944      5943      5945
      5944      5943      5946      5945      5943      5946      5946      5949      5950
      5946      5949      5951      5946      5949      5952      5947      5946      5948
      5947      5946      5949      5948      5946      5949      5949      5952      5953
      5949      5952      5954      5949      5952      5955      5950      5949      5951
      5950      5949      5952      5951      5949      5952      5952      5955      5956
      5952      5955      5957      5952      5955      5958      5953      5952      5954
      5953      5952      5955      5954      5952      5955      5955      5958      5959
      5955      5958      5960      5955      5958      5961      5956      5955      5957
      5956      5955      5958      5957      5955      5958      5958      5961      5962
      5958      5961      5963      5958      5961      5964      5959      5958      5960
      5959      5958      5961      5960      5958      5961      5962      5961      5963
      5962      5961      5964      5963      5961      5964      5965      5966      5967
      5965      5966      5968      5965      5966      5981      5965      5969      5970
      5965      5969      5971      5965      5969      5972      5965      5973      5974
      5965      5973      5975      5965      5973      5976      5965      5977      5978
      5965      5977      5979      5965      5977      5980      5966      5965      5969
      5966      5965      5973      5966      5965      5977      5966      5981      5982
      5966      5981      5983      5966      5981      5987      5967      5966      5968
      5967      5966      5981      5968      5966      5981      5969      5965      5973
      5969      5965      5977      5970      5969      5971      5970      5969      5972
      5971      5969      5972      5973      5965      5977      5974      5973      5975
      5974      5973      5976      5975      5973      5976      5978      5977      5979
      5978      5977      5980      5979      5977      5980      5981      5987      5984
      5982      5981      5983      5982      5981      5987      5983      5981      5987
      5984      5988      5989      5985      5984      5986      5985      5984      5987
      5985      5984      5988      5986      5984      5987      5986      5984      5988
      5987      5984      5988      5988      5989      5990      5988      5989      5991
      5988      5989      5992      5989      5992      5993      5989      5992      5994
      5989      5992      6000      5990      5989      5991      5990      5989      5992
      5991      5989      5992      5992      5994      5995      5992      6000      6001
      5992      6000      6002      5992      6000      6003      5993      5992      5994
      5993      5992      6000      5994      5992      6000      5994      5995      5996
      5994      5995      5997      5995      5997      5998      5995      5997      5999
      5995      5997      6009      5996      5995      5997      5997      6009      6010
      5997      6009      6011      5997      6009      6012      5998      5997      5999
      5998      5997      6009      5999      5997      6009      6000      6003      6004
      6001      6000      6002      6001      6000      6003      6002      6000      6003
      6003      6004      6005      6003      6004      6006      6004      6006      6007
      6004      6006      6008      6004      6006      6056      6005      6004      6006
      6006      6056      6057      6006      6056      6058      6006      6056      6059
      6007      6006      6008      6007      6006      6056      6008      6006      6056
      6009      6012      6013      6009      6012      6014      6009      6012      6015
      6010      6009      6011      6010      6009      6012      6011      6009      6012
      6012      6015      6016      6012      6015      6017      6012      6015      6018
      6013      6012      6014      6013      6012      6015      6014      6012      6015
      6015      6018      6019      6015      6018      6020      6015      6018      6021
      6016      6015      6017      6016      6015      6018      6017      6015      6018
      6018      6021      6022      6018      6021      6023      6018      6021      6024
      6019      6018      6020      6019      6018      6021      6020      6018      6021
      6021      6024      6025      6021      6024      6026      6021      6024      6027
      6022      6021      6023      6022      6021      6024      6023      6021      6024
      6024      6027      6028      6024      6027      6029      6025      6024      6026
      6025      6024      6027      6026      6024      6027      6027      6029      6030
      6027      6029      6031      6028      6027      6029      6029      6031      6032
      6029      6031      6033      6029      6031      6034      6030      6029      6031
      6031      6034      6035      6031      6034      6036      6031      6034      6037
      6032      6031      6033      6032      6031      6034      6033      6031      6034
      6034      6037      6038      6034      6037      6039      6034      6037      6040
      6035      6034      6036      6035      6034      6037      6036      6034      6037
      6037      6040      6041      6037      6040      6042      6037      6040      6043
      6038      6037      6039      6038      6037      6040      6039      6037      6040
      6040      6043      6044      6040      6043      6045      6040      6043      6046
      6041      6040      6042      6041      6040      6043      6042      6040      6043
      6043      6046      6047      6043      6046      6048      6043      6046      6049
      6044      6043      6045      6044      6043      6046      6045      6043      6046
      6046      6049      6050      6046      6049      6051      6046      6049      6052
      6047      6046      6048      6047      6046      6049      6048      6046      6049
      6049      6052      6053      6049      6052      6054      6049      6052      6055
      6050      6049      6051      6050      6049      6052      6051      6049      6052
      6053      6052      6054      6053      6052      6055      6054      6052      6055
      6056      6059      6060      6056      6059      6061      6056      6059      6062
      6057      6056      6058      6057      6056      6059      6058      6056      6059
      6059      6062      6063      6059      6062      6064      6059      6062      6065
      6060      6059      6061      6060      6059      6062      6061      6059      6062
      6062      6065      6066      6062      6065      6067      6062      6065      6068
      6063      6062      6064      6063      6062      6065      6064      6062      6065
      6065      6068      6069      6065      6068      6070      6065      6068      6071
      6066      6065      6067      6066      6065      6068      6067      6065      6068
      6068      6071      6072      6068      6071      6073      6068      6071      6074
      6069      6068      6070      6069      6068      6071      6070      6068      6071
      6071      6074      6075      6071      6074      6076      6071      6074      6077
      6072      6071      6073      6072      6071      6074      6073      6071      6074
      6074      6077      6078      6074      6077      6079      6074      6077      6080
      6075      6074      6076      6075      6074      6077      6076      6074      6077
      6077      6080      6081      6077      6080      6082      6077      6080      6083
      6078      6077      6079      6078      6077      6080      6079      6077      6080
      6080      6083      6084      6080      6083      6085      6080      6083      6086
      6081      6080      6082      6081      6080      6083      6082      6080      6083
      6083      6086      6087      6083      6086      6088      6083      6086      6089
      6084      6083      6085      6084      6083      6086      6085      6083      6086
      6086      6089      6090      6086      6089      6091      6086      6089      6092
      6087      6086      6088      6087      6086      6089      6088      6086      6089
      6089      6092      6093      6089      6092      6094      6089      6092      6095
      6090      6089      6091      6090      6089      6092      6091      6089      6092
      6092      6095      6096      6092      6095      6097      6092      6095      6098
      6093      6092      6094      6093      6092      6095      6094      6092      6095
      6096      6095      6097      6096      6095      6098      6097      6095      6098
      6099      6100      6101      6099      6100      6102      6099      6100      6115
      6099      6103      6104      6099      6103      6105      6099      6103      6106
      6099      6107      6108      6099      6107      6109      6099      6107      6110
      6099      6111      6112      6099      6111      6113      6099      6111      6114
      6100      6099      6103      6100      6099      6107      6100      6099      6111
      6100      6115      6116      6100      6115      6117      6100      6115      6121
      6101      6100      6102      6101      6100      6115      6102      6100      6115
      6103      6099      6107      6103      6099      6111      6104      6103      6105
      6104      6103      6106      6105      6103      6106      6107      6099      6111
      6108      6107      6109      6108      6107      6110      6109      6107      6110
      6112      6111      6113      6112      6111      6114      6113      6111      6114
      6115      6121      6118      6116      6115      6117      6116      6115      6121
      6117      6115      6121      6118      6122      6123      6119      6118      6120
      6119      6118      6121      6119      6118      6122      6120      6118      6121
      6120      6118      6122      6121      6118      6122      6122      6123      6124
      6122      6123      6125      6122      6123      6126      6123      6126      6127
      6123      6126      6128      6123      6126      6134      6124      6123      6125
      6124      6123      6126      6125      6123      6126      6126      6128      6129
      6126      6134      6135      6126      6134      6136      6126      6134      6137
      6127      6126      6128      6127      6126      6134      6128      6126      6134
      6128      6129      6130      6128      6129      6131      6129      6131      6132
      6129      6131      6133      6129      6131      6143      6130      6129      6131
      6131      6143      6144      6131      6143      6145      6131      6143      6146
      6132      6131      6133      6132      6131      6143      6133      6131      6143
      6134      6137      6138      6135      6134      6136      6135      6134      6137
      6136      6134      6137      6137      6138      6139      6137      6138      6140
      6138      6140      6141      6138      6140      6142      6138      6140      6190
      6139      6138      6140      6140      6190      6191      6140      6190      6192
      6140      6190      6193      6141      6140      6142      6141      6140      6190
      6142      6140      6190      6143      6146      6147      6143      6146      6148
      6143      6146      6149      6144      6143      6145      6144      6143      6146
      6145      6143      6146      6146      6149      6150      6146      6149      6151
      6146      6149      6152      6147      6146      6148      6147      6146      6149
      6148      6146      6149      6149      6152      6153      6149      6152      6154
      6149      6152      6155      6150      6149      6151      6150      6149      6152
      6151      6149      6152      6152      6155      6156      6152      6155      6157
      6152      6155      6158      6153      6152      6154      6153      6152      6155
      6154      6152      6155      6155      6158      6159      6155      6158      6160
      6155      6158      6161      6156      6155      6157      6156      6155      6158
      6157      6155      6158      6158      6161      6162      6158      6161      6163
      6159      6158      6160      6159      6158      6161      6160      6158      6161
      6161      6163      6164      6161      6163      6165      6162      6161      6163
      6163      6165      6166      6163      6165      6167      6163      6165      6168
      6164      6163      6165      6165      6168      6169      6165      6168      6170
      6165      6168      6171      6166      6165      6167      6166      6165      6168
      6167      6165      6168      6168      6171      6172      6168      6171      6173
      6168      6171      6174      6169      6168      6170      6169      6168      6171
      6170      6168      6171      6171      6174      6175      6171      6174      6176
      6171      6174      6177      6172      6171      6173      6172      6171      6174
      6173      6171      6174      6174      6177      6178      6174      6177      6179
      6174      6177      6180      6175      6174      6176      6175      6174      6177
      6176      6174      6177      6177      6180      6181      6177      6180      6182
      6177      6180      6183      6178      6177      6179      6178      6177      6180
      6179      6177      6180      6180      6183      6184      6180      6183      6185
      6180      6183      6186      6181      6180      6182      6181      6180      6183
      6182      6180      6183      6183      6186      6187      6183      6186      6188
      6183      6186      6189      6184      6183      6185      6184      6183      6186
      6185      6183      6186      6187      6186      6188      6187      6186      6189
      6188      6186      6189      6190      6193      6194      6190      6193      6195
      6190      6193      6196      6191      6190      6192      6191      6190      6193
      6192      6190      6193      6193      6196      6197      6193      6196      6198
      6193      6196      6199      6194      6193      6195      6194      6193      6196
      6195      6193      6196      6196      6199      6200      6196      6199      6201
      6196      6199      6202      6197      6196      6198      6197      6196      6199
      6198      6196      6199      6199      6202      6203      6199      6202      6204
      6199      6202      6205      6200      6199      6201      6200      6199      6202
      6201      6199      6202      6202      6205      6206      6202      6205      6207
      6202      6205      6208      6203      6202      6204      6203      6202      6205
      6204      6202      6205      6205      6208      6209      6205      6208      6210
      6205      6208      6211      6206      6205      6207      6206      6205      6208
      6207      6205      6208      6208      6211      6212      6208      6211      6213
      6208      6211      6214      6209      6208      6210      6209      6208      6211
      6210      6208      6211      6211      6214      6215      6211      6214      6216
      6211      6214      6217      6212      6211      6213      6212      6211      6214
      6213      6211      6214      6214      6217      6218      6214      6217      6219
      6214      6217      6220      6215      6214      6216      6215      6214      6217
      6216      6214      6217      6217      6220      6221      6217      6220      6222
      6217      6220      6223      6218      6217      6219      6218      6217      6220
      6219      6217      6220      6220      6223      6224      6220      6223      6225
      6220      6223      6226      6221      6220      6222      6221      6220      6223
      6222      6220      6223      6223      6226      6227      6223      6226      6228
      6223      6226      6229      6224      6223      6225      6224      6223      6226
      6225      6223      6226      6226      6229      6230      6226      6229      6231
      6226      6229      6232      6227      6226      6228      6227      6226      6229
      6228      6226      6229      6230      6229      6231      6230      6229      6232
      6231      6229      6232      6233      6234      6235      6233      6234      6236
      6233      6234      6249      6233      6237      6238      6233      6237      6239
      6233      6237      6240      6233      6241      6242      6233      6241      6243
      6233      6241      6244      6233      6245      6246      6233      6245      6247
      6233      6245      6248      6234      6233      6237      6234      6233      6241
      6234      6233      6245      6234      6249      6250      6234      6249      6251
      6234      6249      6255      6235      6234      6236      6235      6234      6249
      6236      6234      6249      6237      6233      6241      6237      6233      6245
      6238      6237      6239      6238      6237      6240      6239      6237      6240
      6241      6233      6245      6242      6241      6243      6242      6241      6244
      6243      6241      6244      6246      6245      6247      6246      6245      6248
      6247      6245      6248      6249      6255      6252      6250      6249      6251
      6250      6249      6255      6251      6249      6255      6252      6256      6257
      6253      6252      6254      6253      6252      6255      6253      6252      6256
      6254      6252      6255      6254      6252      6256      6255      6252      6256
      6256      6257      6258      6256      6257      6259      6256      6257      6260
      6257      6260      6261      6257      6260      6262      6257      6260      6268
      6258      6257      6259      6258      6257      6260      6259      6257      6260
      6260      6262      6263      6260      6268      6269      6260      6268      6270
      6260      6268      6271      6261      6260      6262      6261      6260      6268
      6262      6260      6268      6262      6263      6264      6262      6263      6265
      6263      6265      6266      6263      6265      6267      6263      6265      6277
      6264      6263      6265      6265      6277      6278      6265      6277      6279
      6265      6277      6280      6266      6265      6267      6266      6265      6277
      6267      6265      6277      6268      6271      6272      6269      6268      6270
      6269      6268      6271      6270      6268      6271      6271      6272      6273
      6271      6272      6274      6272      6274      6275      6272      6274      6276
      6272      6274      6324      6273      6272      6274      6274      6324      6325
      6274      6324      6326      6274      6324      6327      6275      6274      6276
      6275      6274      6324      6276      6274      6324      6277      6280      6281
      6277      6280      6282      6277      6280      6283      6278      6277      6279
      6278      6277      6280      6279      6277      6280      6280      6283      6284
      6280      6283      6285      6280      6283      6286      6281      6280      6282
      6281      6280      6283      6282      6280      6283      6283      6286      6287
      6283      6286      6288      6283      6286      6289      6284      6283      6285
      6284      6283      6286      6285      6283      6286      6286      6289      6290
      6286      6289      6291      6286      6289      6292      6287      6286      6288
      6287      6286      6289      6288      6286      6289      6289      6292      6293
      6289      6292      6294      6289      6292      6295      6290      6289      6291
      6290      6289      6292      6291      6289      6292      6292      6295      6296
      6292      6295      6297      6293      6292      6294      6293      6292      6295
      6294      6292      6295      6295      6297      6298      6295      6297      6299
      6296      6295      6297      6297      6299      6300      6297      6299      6301
      6297      6299      6302      6298      6297      6299      6299      6302      6303
      6299      6302      6304      6299      6302      6305      6300      6299      6301
      6300      6299      6302      6301      6299      6302      6302      6305      6306
      6302      6305      6307      6302      6305      6308      6303      6302      6304
      6303      6302      6305      6304      6302      6305      6305      6308      6309
      6305      6308      6310      6305      6308      6311      6306      6305      6307
      6306      6305      6308      6307      6305      6308      6308      6311      6312
      6308      6311      6313      6308      6311      6314      6309      6308      6310
      6309      6308      6311      6310      6308      6311      6311      6314      6315
      6311      6314      6316      6311      6314      6317      6312      6311      6313
      6312      6311      6314      6313      6311      6314      6314      6317      6318
      6314      6317      6319      6314      6317      6320      6315      6314      6316
      6315      6314      6317      6316      6314      6317      6317      6320      6321
      6317      6320      6322      6317      6320      6323      6318      6317      6319
      6318      6317      6320      6319      6317      6320      6321      6320      6322
      6321      6320      6323      6322      6320      6323      6324      6327      6328
      6324      6327      6329      6324      6327      6330      6325      6324      6326
      6325      6324      6327      6326      6324      6327      6327      6330      6331
      6327      6330      6332      6327      6330      6333      6328      6327      6329
      6328      6327      6330      6329      6327      6330      6330      6333      6334
      6330      6333      6335      6330      6333      6336      6331      6330      6332
      6331      6330      6333      6332      6330      6333      6333      6336      6337
      6333      6336      6338      6333      6336      6339      6334      6333      6335
      6334      6333      6336      6335      6333      6336      6336      6339      6340
      6336      6339      6341      6336      6339      6342      6337      6336      6338
      6337      6336      6339      6338      6336      6339      6339      6342      6343
      6339      6342      6344      6339      6342      6345      6340      6339      6341
      6340      6339      6342      6341      6339      6342      6342      6345      6346
      6342      6345      6347      6342      6345      6348      6343      6342      6344
      6343      6342      6345      6344      6342      6345      6345      6348      6349
      6345      6348      6350      6345      6348      6351      6346      6345      6347
      6346      6345      6348      6347      6345      6348      6348      6351      6352
      6348      6351      6353      6348      6351      6354      6349      6348      6350
      6349      6348      6351      6350      6348      6351      6351      6354      6355
      6351      6354      6356      6351      6354      6357      6352      6351      6353
      6352      6351      6354      6353      6351      6354      6354      6357      6358
      6354      6357      6359      6354      6357      6360      6355      6354      6356
      6355      6354      6357      6356      6354      6357      6357      6360      6361
      6357      6360      6362      6357      6360      6363      6358      6357      6359
      6358      6357      6360      6359      6357      6360      6360      6363      6364
      6360      6363      6365      6360      6363      6366      6361      6360      6362
      6361      6360      6363      6362      6360      6363      6364      6363      6365
      6364      6363      6366      6365      6363      6366      6367      6368      6369
      6367      6368      6370      6367      6368      6383      6367      6371      6372
      6367      6371      6373      6367      6371      6374      6367      6375      6376
      6367      6375      6377      6367      6375      6378      6367      6379      6380
      6367      6379      6381      6367      6379      6382      6368      6367      6371
      6368      6367      6375      6368      6367      6379      6368      6383      6384
      6368      6383      6385      6368      6383      6389      6369      6368      6370
      6369      6368      6383      6370      6368      6383      6371      6367      6375
      6371      6367      6379      6372      6371      6373      6372      6371      6374
      6373      6371      6374      6375      6367      6379      6376      6375      6377
      6376      6375      6378      6377      6375      6378      6380      6379      6381
      6380      6379      6382      6381      6379      6382      6383      6389      6386
      6384      6383      6385      6384      6383      6389      6385      6383      6389
      6386      6390      6391      6387      6386      6388      6387      6386      6389
      6387      6386      6390      6388      6386      6389      6388      6386      6390
      6389      6386      6390      6390      6391      6392      6390      6391      6393
      6390      6391      6394      6391      6394      6395      6391      6394      6396
      6391      6394      6402      6392      6391      6393      6392      6391      6394
      6393      6391      6394      6394      6396      6397      6394      6402      6403
      6394      6402      6404      6394      6402      6405      6395      6394      6396
      6395      6394      6402      6396      6394      6402      6396      6397      6398
      6396      6397      6399      6397      6399      6400      6397      6399      6401
      6397      6399      6411      6398      6397      6399      6399      6411      6412
      6399      6411      6413      6399      6411      6414      6400      6399      6401
      6400      6399      6411      6401      6399      6411      6402      6405      6406
      6403      6402      6404      6403      6402      6405      6404      6402      6405
      6405      6406      6407      6405      6406      6408      6406      6408      6409
      6406      6408      6410      6406      6408      6458      6407      6406      6408
      6408      6458      6459      6408      6458      6460      6408      6458      6461
      6409      6408      6410      6409      6408      6458      6410      6408      6458
      6411      6414      6415      6411      6414      6416      6411      6414      6417
      6412      6411      6413      6412      6411      6414      6413      6411      6414
      6414      6417      6418      6414      6417      6419      6414      6417      6420
      6415      6414      6416      6415      6414      6417      6416      6414      6417
      6417      6420      6421      6417      6420      6422      6417      6420      6423
      6418      6417      6419      6418      6417      6420      6419      6417      6420
      6420      6423      6424      6420      6423      6425      6420      6423      6426
      6421      6420      6422      6421      6420      6423      6422      6420      6423
      6423      6426      6427      6423      6426      6428      6423      6426      6429
      6424      6423      6425      6424      6423      6426      6425      6423      6426
      6426      6429      6430      6426      6429      6431      6427      6426      6428
      6427      6426      6429      6428      6426      6429      6429      6431      6432
      6429      6431      6433      6430      6429      6431      6431      6433      6434
      6431      6433      6435      6431      6433      6436      6432      6431      6433
      6433      6436      6437      6433      6436      6438      6433      6436      6439
      6434      6433      6435      6434      6433      6436      6435      6433      6436
      6436      6439      6440      6436      6439      6441      6436      6439      6442
      6437      6436      6438      6437      6436      6439      6438      6436      6439
      6439      6442      6443      6439      6442      6444      6439      6442      6445
      6440      6439      6441      6440      6439      6442      6441      6439      6442
      6442      6445      6446      6442      6445      6447      6442      6445      6448
      6443      6442      6444      6443      6442      6445      6444      6442      6445
      6445      6448      6449      6445      6448      6450      6445      6448      6451
      6446      6445      6447      6446      6445      6448      6447      6445      6448
      6448      6451      6452      6448      6451      6453      6448      6451      6454
      6449      6448      6450      6449      6448      6451      6450      6448      6451
      6451      6454      6455      6451      6454      6456      6451      6454      6457
      6452      6451      6453      6452      6451      6454      6453      6451      6454
      6455      6454      6456      6455      6454      6457      6456      6454      6457
      6458      6461      6462      6458      6461      6463      6458      6461      6464
      6459      6458      6460      6459      6458      6461      6460      6458      6461
      6461      6464      6465      6461      6464      6466      6461      6464      6467
      6462      6461      6463      6462      6461      6464      6463      6461      6464
      6464      6467      6468      6464      6467      6469      6464      6467      6470
      6465      6464      6466      6465      6464      6467      6466      6464      6467
      6467      6470      6471      6467      6470      6472      6467      6470      6473
      6468      6467      6469      6468      6467      6470      6469      6467      6470
      6470      6473      6474      6470      6473      6475      6470      6473      6476
      6471      6470      6472      6471      6470      6473      6472      6470      6473
      6473      6476      6477      6473      6476      6478      6473      6476      6479
      6474      6473      6475      6474      6473      6476      6475      6473      6476
      6476      6479      6480      6476      6479      6481      6476      6479      6482
      6477      6476      6478      6477      6476      6479      6478      6476      6479
      6479      6482      6483      6479      6482      6484      6479      6482      6485
      6480      6479      6481      6480      6479      6482      6481      6479      6482
      6482      6485      6486      6482      6485      6487      6482      6485      6488
      6483      6482      6484      6483      6482      6485      6484      6482      6485
      6485      6488      6489      6485      6488      6490      6485      6488      6491
      6486      6485      6487      6486      6485      6488      6487      6485      6488
      6488      6491      6492      6488      6491      6493      6488      6491      6494
      6489      6488      6490      6489      6488      6491      6490      6488      6491
      6491      6494      6495      6491      6494      6496      6491      6494      6497
      6492      6491      6493      6492      6491      6494      6493      6491      6494
      6494      6497      6498      6494      6497      6499      6494      6497      6500
      6495      6494      6496      6495      6494      6497      6496      6494      6497
      6498      6497      6499      6498      6497      6500      6499      6497      6500
      6501      6502      6503      6501      6502      6504      6501      6502      6517
      6501      6505      6506      6501      6505      6507      6501      6505      6508
      6501      6509      6510      6501      6509      6511      6501      6509      6512
      6501      6513      6514      6501      6513      6515      6501      6513      6516
      6502      6501      6505      6502      6501      6509      6502      6501      6513
      6502      6517      6518      6502      6517      6519      6502      6517      6523
      6503      6502      6504      6503      6502      6517      6504      6502      6517
      6505      6501      6509      6505      6501      6513      6506      6505      6507
      6506      6505      6508      6507      6505      6508      6509      6501      6513
      6510      6509      6511      6510      6509      6512      6511      6509      6512
      6514      6513      6515      6514      6513      6516      6515      6513      6516
      6517      6523      6520      6518      6517      6519      6518      6517      6523
      6519      6517      6523      6520      6524      6525      6521      6520      6522
      6521      6520      6523      6521      6520      6524      6522      6520      6523
      6522      6520      6524      6523      6520      6524      6524      6525      6526
      6524      6525      6527      6524      6525      6528      6525      6528      6529
      6525      6528      6530      6525      6528      6536      6526      6525      6527
      6526      6525      6528      6527      6525      6528      6528      6530      6531
      6528      6536      6537      6528      6536      6538      6528      6536      6539
      6529      6528      6530      6529      6528      6536      6530      6528      6536
      6530      6531      6532      6530      6531      6533      6531      6533      6534
      6531      6533      6535      6531      6533      6545      6532      6531      6533
      6533      6545      6546      6533      6545      6547      6533      6545      6548
      6534      6533      6535      6534      6533      6545      6535      6533      6545
      6536      6539      6540      6537      6536      6538      6537      6536      6539
      6538      6536      6539      6539      6540      6541      6539      6540      6542
      6540      6542      6543      6540      6542      6544      6540      6542      6592
      6541      6540      6542      6542      6592      6593      6542      6592      6594
      6542      6592      6595      6543      6542      6544      6543      6542      6592
      6544      6542      6592      6545      6548      6549      6545      6548      6550
      6545      6548      6551      6546      6545      6547      6546      6545      6548
      6547      6545      6548      6548      6551      6552      6548      6551      6553
      6548      6551      6554      6549      6548      6550      6549      6548      6551
      6550      6548      6551      6551      6554      6555      6551      6554      6556
      6551      6554      6557      6552      6551      6553      6552      6551      6554
      6553      6551      6554      6554      6557      6558      6554      6557      6559
      6554      6557      6560      6555      6554      6556      6555      6554      6557
      6556      6554      6557      6557      6560      6561      6557      6560      6562
      6557      6560      6563      6558      6557      6559      6558      6557      6560
      6559      6557      6560      6560      6563      6564      6560      6563      6565
      6561      6560      6562      6561      6560      6563      6562      6560      6563
      6563      6565      6566      6563      6565      6567      6564      6563      6565
      6565      6567      6568      6565      6567      6569      6565      6567      6570
      6566      6565      6567      6567      6570      6571      6567      6570      6572
      6567      6570      6573      6568      6567      6569      6568      6567      6570
      6569      6567      6570      6570      6573      6574      6570      6573      6575
      6570      6573      6576      6571      6570      6572      6571      6570      6573
      6572      6570      6573      6573      6576      6577      6573      6576      6578
      6573      6576      6579      6574      6573      6575      6574      6573      6576
      6575      6573      6576      6576      6579      6580      6576      6579      6581
      6576      6579      6582      6577      6576      6578      6577      6576      6579
      6578      6576      6579      6579      6582      6583      6579      6582      6584
      6579      6582      6585      6580      6579      6581      6580      6579      6582
      6581      6579      6582      6582      6585      6586      6582      6585      6587
      6582      6585      6588      6583      6582      6584      6583      6582      6585
      6584      6582      6585      6585      6588      6589      6585      6588      6590
      6585      6588      6591      6586      6585      6587      6586      6585      6588
      6587      6585      6588      6589      6588      6590      6589      6588      6591
      6590      6588      6591      6592      6595      6596      6592      6595      6597
      6592      6595      6598      6593      6592      6594      6593      6592      6595
      6594      6592      6595      6595      6598      6599      6595      6598      6600
      6595      6598      6601      6596      6595      6597      6596      6595      6598
      6597      6595      6598      6598      6601      6602      6598      6601      6603
      6598      6601      6604      6599      6598      6600      6599      6598      6601
      6600      6598      6601      6601      6604      6605      6601      6604      6606
      6601      6604      6607      6602      6601      6603      6602      6601      6604
      6603      6601      6604      6604      6607      6608      6604      6607      6609
      6604      6607      6610      6605      6604      6606      6605      6604      6607
      6606      6604      6607      6607      6610      6611      6607      6610      6612
      6607      6610      6613      6608      6607      6609      6608      6607      6610
      6609      6607      6610      6610      6613      6614      6610      6613      6615
      6610      6613      6616      6611      6610      6612      6611      6610      6613
      6612      6610      6613      6613      6616      6617      6613      6616      6618
      6613      6616      6619      6614      6613      6615      6614      6613      6616
      6615      6613      6616      6616      6619      6620      6616      6619      6621
      6616      6619      6622      6617      6616      6618      6617      6616      6619
      6618      6616      6619      6619      6622      6623      6619      6622      6624
      6619      6622      6625      6620      6619      6621      6620      6619      6622
      6621      6619      6622      6622      6625      6626      6622      6625      6627
      6622      6625      6628      6623      6622      6624      6623      6622      6625
      6624      6622      6625      6625      6628      6629      6625      6628      6630
      6625      6628      6631      6626      6625      6627      6626      6625      6628
      6627      6625      6628      6628      6631      6632      6628      6631      6633
      6628      6631      6634      6629      6628      6630      6629      6628      6631
      6630      6628      6631      6632      6631      6633      6632      6631      6634
      6633      6631      6634      6635      6636      6637      6635      6636      6638
      6635      6636      6651      6635      6639      6640      6635      6639      6641
      6635      6639      6642      6635      6643      6644      6635      6643      6645
      6635      6643      6646      6635      6647      6648      6635      6647      6649
      6635      6647      6650      6636      6635      6639      6636      6635      6643
      6636      6635      6647      6636      6651      6652      6636      6651      6653
      6636      6651      6657      6637      6636      6638      6637      6636      6651
      6638      6636      6651      6639      6635      6643      6639      6635      6647
      6640      6639      6641      6640      6639      6642      6641      6639      6642
      6643      6635      6647      6644      6643      6645      6644      6643      6646
      6645      6643      6646      6648      6647      6649      6648      6647      6650
      6649      6647      6650      6651      6657      6654      6652      6651      6653
      6652      6651      6657      6653      6651      6657      6654      6658      6659
      6655      6654      6656      6655      6654      6657      6655      6654      6658
      6656      6654      6657      6656      6654      6658      6657      6654      6658
      6658      6659      6660      6658      6659      6661      6658      6659      6662
      6659      6662      6663      6659      6662      6664      6659      6662      6670
      6660      6659      6661      6660      6659      6662      6661      6659      6662
      6662      6664      6665      6662      6670      6671      6662      6670      6672
      6662      6670      6673      6663      6662      6664      6663      6662      6670
      6664      6662      6670      6664      6665      6666      6664      6665      6667
      6665      6667      6668      6665      6667      6669      6665      6667      6679
      6666      6665      6667      6667      6679      6680      6667      6679      6681
      6667      6679      6682      6668      6667      6669      6668      6667      6679
      6669      6667      6679      6670      6673      6674      6671      6670      6672
      6671      6670      6673      6672      6670      6673      6673      6674      6675
      6673      6674      6676      6674      6676      6677      6674      6676      6678
      6674      6676      6726      6675      6674      6676      6676      6726      6727
      6676      6726      6728      6676      6726      6729      6677      6676      6678
      6677      6676      6726      6678      6676      6726      6679      6682      6683
      6679      6682      6684      6679      6682      6685      6680      6679      6681
      6680      6679      6682      6681      6679      6682      6682      6685      6686
      6682      6685      6687      6682      6685      6688      6683      6682      6684
      6683      6682      6685      6684      6682      6685      6685      6688      6689
      6685      6688      6690      6685      6688      6691      6686      6685      6687
      6686      6685      6688      6687      6685      6688      6688      6691      6692
      6688      6691      6693      6688      6691      6694      6689      6688      6690
      6689      6688      6691      6690      6688      6691      6691      6694      6695
      6691      6694      6696      6691      6694      6697      6692      6691      6693
      6692      6691      6694      6693      6691      6694      6694      6697      6698
      6694      6697      6699      6695      6694      6696      6695      6694      6697
      6696      6694      6697      6697      6699      6700      6697      6699      6701
      6698      6697      6699      6699      6701      6702      6699      6701      6703
      6699      6701      6704      6700      6699      6701      6701      6704      6705
      6701      6704      6706      6701      6704      6707      6702      6701      6703
      6702      6701      6704      6703      6701      6704      6704      6707      6708
      6704      6707      6709      6704      6707      6710      6705      6704      6706
      6705      6704      6707      6706      6704      6707      6707      6710      6711
      6707      6710      6712      6707      6710      6713      6708      6707      6709
      6708      6707      6710      6709      6707      6710      6710      6713      6714
      6710      6713      6715      6710      6713      6716      6711      6710      6712
      6711      6710      6713      6712      6710      6713      6713      6716      6717
      6713      6716      6718      6713      6716      6719      6714      6713      6715
      6714      6713      6716      6715      6713      6716      6716      6719      6720
      6716      6719      6721      6716      6719      6722      6717      6716      6718
      6717      6716      6719      6718      6716      6719      6719      6722      6723
      6719      6722      6724      6719      6722      6725      6720      6719      6721
      6720      6719      6722      6721      6719      6722      6723      6722      6724
      6723      6722      6725      6724      6722      6725      6726      6729      6730
      6726      6729      6731      6726      6729      6732      6727      6726      6728
      6727      6726      6729      6728      6726      6729      6729      6732      6733
      6729      6732      6734      6729      6732      6735      6730      6729      6731
      6730      6729      6732      6731      6729      6732      6732      6735      6736
      6732      6735      6737      6732      6735      6738      6733      6732      6734
      6733      6732      6735      6734      6732      6735      6735      6738      6739
      6735      6738      6740      6735      6738      6741      6736      6735      6737
      6736      6735      6738      6737      6735      6738      6738      6741      6742
      6738      6741      6743      6738      6741      6744      6739      6738      6740
      6739      6738      6741      6740      6738      6741      6741      6744      6745
      6741      6744      6746      6741      6744      6747      6742      6741      6743
      6742      6741      6744      6743      6741      6744      6744      6747      6748
      6744      6747      6749      6744      6747      6750      6745      6744      6746
      6745      6744      6747      6746      6744      6747      6747      6750      6751
      6747      6750      6752      6747      6750      6753      6748      6747      6749
      6748      6747      6750      6749      6747      6750      6750      6753      6754
      6750      6753      6755      6750      6753      6756      6751      6750      6752
      6751      6750      6753      6752      6750      6753      6753      6756      6757
      6753      6756      6758      6753      6756      6759      6754      6753      6755
      6754      6753      6756      6755      6753      6756      6756      6759      6760
      6756      6759      6761      6756      6759      6762      6757      6756      6758
      6757      6756      6759      6758      6756      6759      6759      6762      6763
      6759      6762      6764      6759      6762      6765      6760      6759      6761
      6760      6759      6762      6761      6759      6762      6762      6765      6766
      6762      6765      6767      6762      6765      6768      6763      6762      6764
      6763      6762      6765      6764      6762      6765      6766      6765      6767
      6766      6765      6768      6767      6765      6768      6769      6770      6771
      6769      6770      6772      6769      6770      6785      6769      6773      6774
      6769      6773      6775      6769      6773      6776      6769      6777      6778
      6769      6777      6779      6769      6777      6780      6769      6781      6782
      6769      6781      6783      6769      6781      6784      6770      6769      6773
      6770      6769      6777      6770      6769      6781      6770      6785      6786
      6770      6785      6787      6770      6785      6791      6771      6770      6772
      6771      6770      6785      6772      6770      6785      6773      6769      6777
      6773      6769      6781      6774      6773      6775      6774      6773      6776
      6775      6773      6776      6777      6769      6781      6778      6777      6779
      6778      6777      6780      6779      6777      6780      6782      6781      6783
      6782      6781      6784      6783      6781      6784      6785      6791      6788
      6786      6785      6787      6786      6785      6791      6787      6785      6791
      6788      6792      6793      6789      6788      6790      6789      6788      6791
      6789      6788      6792      6790      6788      6791      6790      6788      6792
      6791      6788      6792      6792      6793      6794      6792      6793      6795
      6792      6793      6796      6793      6796      6797      6793      6796      6798
      6793      6796      6804      6794      6793      6795      6794      6793      6796
      6795      6793      6796      6796      6798      6799      6796      6804      6805
      6796      6804      6806      6796      6804      6807      6797      6796      6798
      6797      6796      6804      6798      6796      6804      6798      6799      6800
      6798      6799      6801      6799      6801      6802      6799      6801      6803
      6799      6801      6813      6800      6799      6801      6801      6813      6814
      6801      6813      6815      6801      6813      6816      6802      6801      6803
      6802      6801      6813      6803      6801      6813      6804      6807      6808
      6805      6804      6806      6805      6804      6807      6806      6804      6807
      6807      6808      6809      6807      6808      6810      6808      6810      6811
      6808      6810      6812      6808      6810      6860      6809      6808      6810
      6810      6860      6861      6810      6860      6862      6810      6860      6863
      6811      6810      6812      6811      6810      6860      6812      6810      6860
      6813      6816      6817      6813      6816      6818      6813      6816      6819
      6814      6813      6815      6814      6813      6816      6815      6813      6816
      6816      6819      6820      6816      6819      6821      6816      6819      6822
      6817      6816      6818      6817      6816      6819      6818      6816      6819
      6819      6822      6823      6819      6822      6824      6819      6822      6825
      6820      6819      6821      6820      6819      6822      6821      6819      6822
      6822      6825      6826      6822      6825      6827      6822      6825      6828
      6823      6822      6824      6823      6822      6825      6824      6822      6825
      6825      6828      6829      6825      6828      6830      6825      6828      6831
      6826      6825      6827      6826      6825      6828      6827      6825      6828
      6828      6831      6832      6828      6831      6833      6829      6828      6830
      6829      6828      6831      6830      6828      6831      6831      6833      6834
      6831      6833      6835      6832      6831      6833      6833      6835      6836
      6833      6835      6837      6833      6835      6838      6834      6833      6835
      6835      6838      6839      6835      6838      6840      6835      6838      6841
      6836      6835      6837      6836      6835      6838      6837      6835      6838
      6838      6841      6842      6838      6841      6843      6838      6841      6844
      6839      6838      6840      6839      6838      6841      6840      6838      6841
      6841      6844      6845      6841      6844      6846      6841      6844      6847
      6842      6841      6843      6842      6841      6844      6843      6841      6844
      6844      6847      6848      6844      6847      6849      6844      6847      6850
      6845      6844      6846      6845      6844      6847      6846      6844      6847
      6847      6850      6851      6847      6850      6852      6847      6850      6853
      6848      6847      6849      6848      6847      6850      6849      6847      6850
      6850      6853      6854      6850      6853      6855      6850      6853      6856
      6851      6850      6852      6851      6850      6853      6852      6850      6853
      6853      6856      6857      6853      6856      6858      6853      6856      6859
      6854      6853      6855      6854      6853      6856      6855      6853      6856
      6857      6856      6858      6857      6856      6859      6858      6856      6859
      6860      6863      6864      6860      6863      6865      6860      6863      6866
      6861      6860      6862      6861      6860      6863      6862      6860      6863
      6863      6866      6867      6863      6866      6868      6863      6866      6869
      6864      6863      6865      6864      6863      6866      6865      6863      6866
      6866      6869      6870      6866      6869      6871      6866      6869      6872
      6867      6866      6868      6867      6866      6869      6868      6866      6869
      6869      6872      6873      6869      6872      6874      6869      6872      6875
      6870      6869      6871      6870      6869      6872      6871      6869      6872
      6872      6875      6876      6872      6875      6877      6872      6875      6878
      6873      6872      6874      6873      6872      6875      6874      6872      6875
      6875      6878      6879      6875      6878      6880      6875      6878      6881
      6876      6875      6877      6876      6875      6878      6877      6875      6878
      6878      6881      6882      6878      6881      6883      6878      6881      6884
      6879      6878      6880      6879      6878      6881      6880      6878      6881
      6881      6884      6885      6881      6884      6886      6881      6884      6887
      6882      6881      6883      6882      6881      6884      6883      6881      6884
      6884      6887      6888      6884      6887      6889      6884      6887      6890
      6885      6884      6886      6885      6884      6887      6886      6884      6887
      6887      6890      6891      6887      6890      6892      6887      6890      6893
      6888      6887      6889      6888      6887      6890      6889      6887      6890
      6890      6893      6894      6890      6893      6895      6890      6893      6896
      6891      6890      6892      6891      6890      6893      6892      6890      6893
      6893      6896      6897      6893      6896      6898      6893      6896      6899
      6894      6893      6895      6894      6893      6896      6895      6893      6896
      6896      6899      6900      6896      6899      6901      6896      6899      6902
      6897      6896      6898      6897      6896      6899      6898      6896      6899
      6900      6899      6901      6900      6899      6902      6901      6899      6902
      6903      6904      6905      6903      6904      6906      6903      6904      6919
      6903      6907      6908      6903      6907      6909      6903      6907      6910
      6903      6911      6912      6903      6911      6913      6903      6911      6914
      6903      6915      6916      6903      6915      6917      6903      6915      6918
      6904      6903      6907      6904      6903      6911      6904      6903      6915
      6904      6919      6920      6904      6919      6921      6904      6919      6925
      6905      6904      6906      6905      6904      6919      6906      6904      6919
      6907      6903      6911      6907      6903      6915      6908      6907      6909
      6908      6907      6910      6909      6907      6910      6911      6903      6915
      6912      6911      6913      6912      6911      6914      6913      6911      6914
      6916      6915      6917      6916      6915      6918      6917      6915      6918
      6919      6925      6922      6920      6919      6921      6920      6919      6925
      6921      6919      6925      6922      6926      6927      6923      6922      6924
      6923      6922      6925      6923      6922      6926      6924      6922      6925
      6924      6922      6926      6925      6922      6926      6926      6927      6928
      6926      6927      6929      6926      6927      6930      6927      6930      6931
      6927      6930      6932      6927      6930      6938      6928      6927      6929
      6928      6927      6930      6929      6927      6930      6930      6932      6933
      6930      6938      6939      6930      6938      6940      6930      6938      6941
      6931      6930      6932      6931      6930      6938      6932      6930      6938
      6932      6933      6934      6932      6933      6935      6933      6935      6936
      6933      6935      6937      6933      6935      6947      6934      6933      6935
      6935      6947      6948      6935      6947      6949      6935      6947      6950
      6936      6935      6937      6936      6935      6947      6937      6935      6947
      6938      6941      6942      6939      6938      6940      6939      6938      6941
      6940      6938      6941      6941      6942      6943      6941      6942      6944
      6942      6944      6945      6942      6944      6946      6942      6944      6994
      6943      6942      6944      6944      6994      6995      6944      6994      6996
      6944      6994      6997      6945      6944      6946      6945      6944      6994
      6946      6944      6994      6947      6950      6951      6947      6950      6952
      6947      6950      6953      6948      6947      6949      6948      6947      6950
      6949      6947      6950      6950      6953      6954      6950      6953      6955
      6950      6953      6956      6951      6950      6952      6951      6950      6953
      6952      6950      6953      6953      6956      6957      6953      6956      6958
      6953      6956      6959      6954      6953      6955      6954      6953      6956
      6955      6953      6956      6956      6959      6960      6956      6959      6961
      6956      6959      6962      6957      6956      6958      6957      6956      6959
      6958      6956      6959      6959      6962      6963      6959      6962      6964
      6959      6962      6965      6960      6959      6961      6960      6959      6962
      6961      6959      6962      6962      6965      6966      6962      6965      6967
      6963      6962      6964      6963      6962      6965      6964      6962      6965
      6965      6967      6968      6965      6967      6969      6966      6965      6967
      6967      6969      6970      6967      6969      6971      6967      6969      6972
      6968      6967      6969      6969      6972      6973      6969      6972      6974
      6969      6972      6975      6970      6969      6971      6970      6969      6972
      6971      6969      6972      6972      6975      6976      6972      6975      6977
      6972      6975      6978      6973      6972      6974      6973      6972      6975
      6974      6972      6975      6975      6978      6979      6975      6978      6980
      6975      6978      6981      6976      6975      6977      6976      6975      6978
      6977      6975      6978      6978      6981      6982      6978      6981      6983
      6978      6981      6984      6979      6978      6980      6979      6978      6981
      6980      6978      6981      6981      6984      6985      6981      6984      6986
      6981      6984      6987      6982      6981      6983      6982      6981      6984
      6983      6981      6984      6984      6987      6988      6984      6987      6989
      6984      6987      6990      6985      6984      6986      6985      6984      6987
      6986      6984      6987      6987      6990      6991      6987      6990      6992
      6987      6990      6993      6988      6987      6989      6988      6987      6990
      6989      6987      6990      6991      6990      6992      6991      6990      6993
      6992      6990      6993      6994      6997      6998      6994      6997      6999
      6994      6997      7000      6995      6994      6996      6995      6994      6997
      6996      6994      6997      6997      7000      7001      6997      7000      7002
      6997      7000      7003      6998      6997      6999      6998      6997      7000
      6999      6997      7000      7000      7003      7004      7000      7003      7005
      7000      7003      7006      7001      7000      7002      7001      7000      7003
      7002      7000      7003      7003      7006      7007      7003      7006      7008
      7003      7006      7009      7004      7003      7005      7004      7003      7006
      7005      7003      7006      7006      7009      7010      7006      7009      7011
      7006      7009      7012      7007      7006      7008      7007      7006      7009
      7008      7006      7009      7009      7012      7013      7009      7012      7014
      7009      7012      7015      7010      7009      7011      7010      7009      7012
      7011      7009      7012      7012      7015      7016      7012      7015      7017
      7012      7015      7018      7013      7012      7014      7013      7012      7015
      7014      7012      7015      7015      7018      7019      7015      7018      7020
      7015      7018      7021      7016      7015      7017      7016      7015      7018
      7017      7015      7018      7018      7021      7022      7018      7021      7023
      7018      7021      7024      7019      7018      7020      7019      7018      7021
      7020      7018      7021      7021      7024      7025      7021      7024      7026
      7021      7024      7027      7022      7021      7023      7022      7021      7024
      7023      7021      7024      7024      7027      7028      7024      7027      7029
      7024      7027      7030      7025      7024      7026      7025      7024      7027
      7026      7024      7027      7027      7030      7031      7027      7030      7032
      7027      7030      7033      7028      7027      7029      7028      7027      7030
      7029      7027      7030      7030      7033      7034      7030      7033      7035
      7030      7033      7036      7031      7030      7032      7031      7030      7033
      7032      7030      7033      7034      7033      7035      7034      7033      7036
      7035      7033      7036      7037      7038      7039      7037      7038      7040
      7037      7038      7053      7037      7041      7042      7037      7041      7043
      7037      7041      7044      7037      7045      7046      7037      7045      7047
      7037      7045      7048      7037      7049      7050      7037      7049      7051
      7037      7049      7052      7038      7037      7041      7038      7037      7045
      7038      7037      7049      7038      7053      7054      7038      7053      7055
      7038      7053      7059      7039      7038      7040      7039      7038      7053
      7040      7038      7053      7041      7037      7045      7041      7037      7049
      7042      7041      7043      7042      7041      7044      7043      7041      7044
      7045      7037      7049      7046      7045      7047      7046      7045      7048
      7047      7045      7048      7050      7049      7051      7050      7049      7052
      7051      7049      7052      7053      7059      7056      7054      7053      7055
      7054      7053      7059      7055      7053      7059      7056      7060      7061
      7057      7056      7058      7057      7056      7059      7057      7056      7060
      7058      7056      7059      7058      7056      7060      7059      7056      7060
      7060      7061      7062      7060      7061      7063      7060      7061      7064
      7061      7064      7065      7061      7064      7066      7061      7064      7072
      7062      7061      7063      7062      7061      7064      7063      7061      7064
      7064      7066      7067      7064      7072      7073      7064      7072      7074
      7064      7072      7075      7065      7064      7066      7065      7064      7072
      7066      7064      7072      7066      7067      7068      7066      7067      7069
      7067      7069      7070      7067      7069      7071      7067      7069      7081
      7068      7067      7069      7069      7081      7082      7069      7081      7083
      7069      7081      7084      7070      7069      7071      7070      7069      7081
      7071      7069      7081      7072      7075      7076      7073      7072      7074
      7073      7072      7075      7074      7072      7075      7075      7076      7077
      7075      7076      7078      7076      7078      7079      7076      7078      7080
      7076      7078      7128      7077      7076      7078      7078      7128      7129
      7078      7128      7130      7078      7128      7131      7079      7078      7080
      7079      7078      7128      7080      7078      7128      7081      7084      7085
      7081      7084      7086      7081      7084      7087      7082      7081      7083
      7082      7081      7084      7083      7081      7084      7084      7087      7088
      7084      7087      7089      7084      7087      7090      7085      7084      7086
      7085      7084      7087      7086      7084      7087      7087      7090      7091
      7087      7090      7092      7087      7090      7093      7088      7087      7089
      7088      7087      7090      7089      7087      7090      7090      7093      7094
      7090      7093      7095      7090      7093      7096      7091      7090      7092
      7091      7090      7093      7092      7090      7093      7093      7096      7097
      7093      7096      7098      7093      7096      7099      7094      7093      7095
      7094      7093      7096      7095      7093      7096      7096      7099      7100
      7096      7099      7101      7097      7096      7098      7097      7096      7099
      7098      7096      7099      7099      7101      7102      7099      7101      7103
      7100      7099      7101      7101      7103      7104      7101      7103      7105
      7101      7103      7106      7102      7101      7103      7103      7106      7107
      7103      7106      7108      7103      7106      7109      7104      7103      7105
      7104      7103      7106      7105      7103      7106      7106      7109      7110
      7106      7109      7111      7106      7109      7112      7107      7106      7108
      7107      7106      7109      7108      7106      7109      7109      7112      7113
      7109      7112      7114      7109      7112      7115      7110      7109      7111
      7110      7109      7112      7111      7109      7112      7112      7115      7116
      7112      7115      7117      7112      7115      7118      7113      7112      7114
      7113      7112      7115      7114      7112      7115      7115      7118      7119
      7115      7118      7120      7115      7118      7121      7116      7115      7117
      7116      7115      7118      7117      7115      7118      7118      7121      7122
      7118      7121      7123      7118      7121      7124      7119      7118      7120
      7119      7118      7121      7120      7118      7121      7121      7124      7125
      7121      7124      7126      7121      7124      7127      7122      7121      7123
      7122      7121      7124      7123      7121      7124      7125      7124      7126
      7125      7124      7127      7126      7124      7127      7128      7131      7132
      7128      7131      7133      7128      7131      7134      7129      7128      7130
      7129      7128      7131      7130      7128      7131      7131      7134      7135
      7131      7134      7136      7131      7134      7137      7132      7131      7133
      7132      7131      7134      7133      7131      7134      7134      7137      7138
      7134      7137      7139      7134      7137      7140      7135      7134      7136
      7135      7134      7137      7136      7134      7137      7137      7140      7141
      7137      7140      7142      7137      7140      7143      7138      7137      7139
      7138      7137      7140      7139      7137      7140      7140      7143      7144
      7140      7143      7145      7140      7143      7146      7141      7140      7142
      7141      7140      7143      7142      7140      7143      7143      7146      7147
      7143      7146      7148      7143      7146      7149      7144      7143      7145
      7144      7143      7146      7145      7143      7146      7146      7149      7150
      7146      7149      7151      7146      7149      7152      7147      7146      7148
      7147      7146      7149      7148      7146      7149      7149      7152      7153
      7149      7152      7154      7149      7152      7155      7150      7149      7151
      7150      7149      7152      7151      7149      7152      7152      7155      7156
      7152      7155      7157      7152      7155      7158      7153      7152      7154
      7153      7152      7155      7154      7152      7155      7155      7158      7159
      7155      7158      7160      7155      7158      7161      7156      7155      7157
      7156      7155      7158      7157      7155      7158      7158      7161      7162
      7158      7161      7163      7158      7161      7164      7159      7158      7160
      7159      7158      7161      7160      7158      7161      7161      7164      7165
      7161      7164      7166      7161      7164      7167      7162      7161      7163
      7162      7161      7164      7163      7161      7164      7164      7167      7168
      7164      7167      7169      7164      7167      7170      7165      7164      7166
      7165      7164      7167      7166      7164      7167      7168      7167      7169
      7168      7167      7170      7169      7167      7170      7171      7172      7173
      7171      7172      7174      7171      7172      7187      7171      7175      7176
      7171      7175      7177      7171      7175      7178      7171      7179      7180
      7171      7179      7181      7171      7179      7182      7171      7183      7184
      7171      7183      7185      7171      7183      7186      7172      7171      7175
      7172      7171      7179      7172      7171      7183      7172      7187      7188
      7172      7187      7189      7172      7187      7193      7173      7172      7174
      7173      7172      7187      7174      7172      7187      7175      7171      7179
      7175      7171      7183      7176      7175      7177      7176      7175      7178
      7177      7175      7178      7179      7171      7183      7180      7179      7181
      7180      7179      7182      7181      7179      7182      7184      7183      7185
      7184      7183      7186      7185      7183      7186      7187      7193      7190
      7188      7187      7189      7188      7187      7193      7189      7187      7193
      7190      7194      7195      7191      7190      7192      7191      7190      7193
      7191      7190      7194      7192      7190      7193      7192      7190      7194
      7193      7190      7194      7194      7195      7196      7194      7195      7197
      7194      7195      7198      7195      7198      7199      7195      7198      7200
      7195      7198      7206      7196      7195      7197      7196      7195      7198
      7197      7195      7198      7198      7200      7201      7198      7206      7207
      7198      7206      7208      7198      7206      7209      7199      7198      7200
      7199      7198      7206      7200      7198      7206      7200      7201      7202
      7200      7201      7203      7201      7203      7204      7201      7203      7205
      7201      7203      7215      7202      7201      7203      7203      7215      7216
      7203      7215      7217      7203      7215      7218      7204      7203      7205
      7204      7203      7215      7205      7203      7215      7206      7209      7210
      7207      7206      7208      7207      7206      7209      7208      7206      7209
      7209      7210      7211      7209      7210      7212      7210      7212      7213
      7210      7212      7214      7210      7212      7262      7211      7210      7212
      7212      7262      7263      7212      7262      7264      7212      7262      7265
      7213      7212      7214      7213      7212      7262      7214      7212      7262
      7215      7218      7219      7215      7218      7220      7215      7218      7221
      7216      7215      7217      7216      7215      7218      7217      7215      7218
      7218      7221      7222      7218      7221      7223      7218      7221      7224
      7219      7218      7220      7219      7218      7221      7220      7218      7221
      7221      7224      7225      7221      7224      7226      7221      7224      7227
      7222      7221      7223      7222      7221      7224      7223      7221      7224
      7224      7227      7228      7224      7227      7229      7224      7227      7230
      7225      7224      7226      7225      7224      7227      7226      7224      7227
      7227      7230      7231      7227      7230      7232      7227      7230      7233
      7228      7227      7229      7228      7227      7230      7229      7227      7230
      7230      7233      7234      7230      7233      7235      7231      7230      7232
      7231      7230      7233      7232      7230      7233      7233      7235      7236
      7233      7235      7237      7234      7233      7235      7235      7237      7238
      7235      7237      7239      7235      7237      7240      7236      7235      7237
      7237      7240      7241      7237      7240      7242      7237      7240      7243
      7238      7237      7239      7238      7237      7240      7239      7237      7240
      7240      7243      7244      7240      7243      7245      7240      7243      7246
      7241      7240      7242      7241      7240      7243      7242      7240      7243
      7243      7246      7247      7243      7246      7248      7243      7246      7249
      7244      7243      7245      7244      7243      7246      7245      7243      7246
      7246      7249      7250      7246      7249      7251      7246      7249      7252
      7247      7246      7248      7247      7246      7249      7248      7246      7249
      7249      7252      7253      7249      7252      7254      7249      7252      7255
      7250      7249      7251      7250      7249      7252      7251      7249      7252
      7252      7255      7256      7252      7255      7257      7252      7255      7258
      7253      7252      7254      7253      7252      7255      7254      7252      7255
      7255      7258      7259      7255      7258      7260      7255      7258      7261
      7256      7255      7257      7256      7255      7258      7257      7255      7258
      7259      7258      7260      7259      7258      7261      7260      7258      7261
      7262      7265      7266      7262      7265      7267      7262      7265      7268
      7263      7262      7264      7263      7262      7265      7264      7262      7265
      7265      7268      7269      7265      7268      7270      7265      7268      7271
      7266      7265      7267      7266      7265      7268      7267      7265      7268
      7268      7271      7272      7268      7271      7273      7268      7271      7274
      7269      7268      7270      7269      7268      7271      7270      7268      7271
      7271      7274      7275      7271      7274      7276      7271      7274      7277
      7272      7271      7273      7272      7271      7274      7273      7271      7274
      7274      7277      7278      7274      7277      7279      7274      7277      7280
      7275      7274      7276      7275      7274      7277      7276      7274      7277
      7277      7280      7281      7277      7280      7282      7277      7280      7283
      7278      7277      7279      7278      7277      7280      7279      7277      7280
      7280      7283      7284      7280      7283      7285      7280      7283      7286
      7281      7280      7282      7281      7280      7283      7282      7280      7283
      7283      7286      7287      7283      7286      7288      7283      7286      7289
      7284      7283      7285      7284      7283      7286      7285      7283      7286
      7286      7289      7290      7286      7289      7291      7286      7289      7292
      7287      7286      7288      7287      7286      7289      7288      7286      7289
      7289      7292      7293      7289      7292      7294      7289      7292      7295
      7290      7289      7291      7290      7289      7292      7291      7289      7292
      7292      7295      7296      7292      7295      7297      7292      7295      7298
      7293      7292      7294      7293      7292      7295      7294      7292      7295
      7295      7298      7299      7295      7298      7300      7295      7298      7301
      7296      7295      7297      7296      7295      7298      7297      7295      7298
      7298      7301      7302      7298      7301      7303      7298      7301      7304
      7299      7298      7300      7299      7298      7301      7300      7298      7301
      7302      7301      7303      7302      7301      7304      7303      7301      7304
      7305      7306      7307      7305      7306      7308      7305      7306      7321
      7305      7309      7310      7305      7309      7311      7305      7309      7312
      7305      7313      7314      7305      7313      7315      7305      7313      7316
      7305      7317      7318      7305      7317      7319      7305      7317      7320
      7306      7305      7309      7306      7305      7313      7306      7305      7317
      7306      7321      7322      7306      7321      7323      7306      7321      7327
      7307      7306      7308      7307      7306      7321      7308      7306      7321
      7309      7305      7313      7309      7305      7317      7310      7309      7311
      7310      7309      7312      7311      7309      7312      7313      7305      7317
      7314      7313      7315      7314      7313      7316      7315      7313      7316
      7318      7317      7319      7318      7317      7320      7319      7317      7320
      7321      7327      7324      7322      7321      7323      7322      7321      7327
      7323      7321      7327      7324      7328      7329      7325      7324      7326
      7325      7324      7327      7325      7324      7328      7326      7324      7327
      7326      7324      7328      7327      7324      7328      7328      7329      7330
      7328      7329      7331      7328      7329      7332      7329      7332      7333
      7329      7332      7334      7329      7332      7340      7330      7329      7331
      7330      7329      7332      7331      7329      7332      7332      7334      7335
      7332      7340      7341      7332      7340      7342      7332      7340      7343
      7333      7332      7334      7333      7332      7340      7334      7332      7340
      7334      7335      7336      7334      7335      7337      7335      7337      7338
      7335      7337      7339      7335      7337      7349      7336      7335      7337
      7337      7349      7350      7337      7349      7351      7337      7349      7352
      7338      7337      7339      7338      7337      7349      7339      7337      7349
      7340      7343      7344      7341      7340      7342      7341      7340      7343
      7342      7340      7343      7343      7344      7345      7343      7344      7346
      7344      7346      7347      7344      7346      7348      7344      7346      7396
      7345      7344      7346      7346      7396      7397      7346      7396      7398
      7346      7396      7399      7347      7346      7348      7347      7346      7396
      7348      7346      7396      7349      7352      7353      7349      7352      7354
      7349      7352      7355      7350      7349      7351      7350      7349      7352
      7351      7349      7352      7352      7355      7356      7352      7355      7357
      7352      7355      7358      7353      7352      7354      7353      7352      7355
      7354      7352      7355      7355      7358      7359      7355      7358      7360
      7355      7358      7361      7356      7355      7357      7356      7355      7358
      7357      7355      7358      7358      7361      7362      7358      7361      7363
      7358      7361      7364      7359      7358      7360      7359      7358      7361
      7360      7358      7361      7361      7364      7365      7361      7364      7366
      7361      7364      7367      7362      7361      7363      7362      7361      7364
      7363      7361      7364      7364      7367      7368      7364      7367      7369
      7365      7364      7366      7365      7364      7367      7366      7364      7367
      7367      7369      7370      7367      7369      7371      7368      7367      7369
      7369      7371      7372      7369      7371      7373      7369      7371      7374
      7370      7369      7371      7371      7374      7375      7371      7374      7376
      7371      7374      7377      7372      7371      7373      7372      7371      7374
      7373      7371      7374      7374      7377      7378      7374      7377      7379
      7374      7377      7380      7375      7374      7376      7375      7374      7377
      7376      7374      7377      7377      7380      7381      7377      7380      7382
      7377      7380      7383      7378      7377      7379      7378      7377      7380
      7379      7377      7380      7380      7383      7384      7380      7383      7385
      7380      7383      7386      7381      7380      7382      7381      7380      7383
      7382      7380      7383      7383      7386      7387      7383      7386      7388
      7383      7386      7389      7384      7383      7385      7384      7383      7386
      7385      7383      7386      7386      7389      7390      7386      7389      7391
      7386      7389      7392      7387      7386      7388      7387      7386      7389
      7388      7386      7389      7389      7392      7393      7389      7392      7394
      7389      7392      7395      7390      7389      7391      7390      7389      7392
      7391      7389      7392      7393      7392      7394      7393      7392      7395
      7394      7392      7395      7396      7399      7400      7396      7399      7401
      7396      7399      7402      7397      7396      7398      7397      7396      7399
      7398      7396      7399      7399      7402      7403      7399      7402      7404
      7399      7402      7405      7400      7399      7401      7400      7399      7402
      7401      7399      7402      7402      7405      7406      7402      7405      7407
      7402      7405      7408      7403      7402      7404      7403      7402      7405
      7404      7402      7405      7405      7408      7409      7405      7408      7410
      7405      7408      7411      7406      7405      7407      7406      7405      7408
      7407      7405      7408      7408      7411      7412      7408      7411      7413
      7408      7411      7414      7409      7408      7410      7409      7408      7411
      7410      7408      7411      7411      7414      7415      7411      7414      7416
      7411      7414      7417      7412      7411      7413      7412      7411      7414
      7413      7411      7414      7414      7417      7418      7414      7417      7419
      7414      7417      7420      7415      7414      7416      7415      7414      7417
      7416      7414      7417      7417      7420      7421      7417      7420      7422
      7417      7420      7423      7418      7417      7419      7418      7417      7420
      7419      7417      7420      7420      7423      7424      7420      7423      7425
      7420      7423      7426      7421      7420      7422      7421      7420      7423
      7422      7420      7423      7423      7426      7427      7423      7426      7428
      7423      7426      7429      7424      7423      7425      7424      7423      7426
      7425      7423      7426      7426      7429      7430      7426      7429      7431
      7426      7429      7432      7427      7426      7428      7427      7426      7429
      7428      7426      7429      7429      7432      7433      7429      7432      7434
      7429      7432      7435      7430      7429      7431      7430      7429      7432
      7431      7429      7432      7432      7435      7436      7432      7435      7437
      7432      7435      7438      7433      7432      7434      7433      7432      7435
      7434      7432      7435      7436      7435      7437      7436      7435      7438
      7437      7435      7438      7439      7440      7441      7439      7440      7442
      7439      7440      7455      7439      7443      7444      7439      7443      7445
      7439      7443      7446      7439      7447      7448      7439      7447      7449
      7439      7447      7450      7439      7451      7452      7439      7451      7453
      7439      7451      7454      7440      7439      7443      7440      7439      7447
      7440      7439      7451      7440      7455      7456      7440      7455      7457
      7440      7455      7461      7441      7440      7442      7441      7440      7455
      7442      7440      7455      7443      7439      7447      7443      7439      7451
      7444      7443      7445      7444      7443      7446      7445      7443      7446
      7447      7439      7451      7448      7447      7449      7448      7447      7450
      7449      7447      7450      7452      7451      7453      7452      7451      7454
      7453      7451      7454      7455      7461      7458      7456      7455      7457
      7456      7455      7461      7457      7455      7461      7458      7462      7463
      7459      7458      7460      7459      7458      7461      7459      7458      7462
      7460      7458      7461      7460      7458      7462      7461      7458      7462
      7462      7463      7464      7462      7463      7465      7462      7463      7466
      7463      7466      7467      7463      7466      7468      7463      7466      7474
      7464      7463      7465      7464      7463      7466      7465      7463      7466
      7466      7468      7469      7466      7474      7475      7466      7474      7476
      7466      7474      7477      7467      7466      7468      7467      7466      7474
      7468      7466      7474      7468      7469      7470      7468      7469      7471
      7469      7471      7472      7469      7471      7473      7469      7471      7483
      7470      7469      7471      7471      7483      7484      7471      7483      7485
      7471      7483      7486      7472      7471      7473      7472      7471      7483
      7473      7471      7483      7474      7477      7478      7475      7474      7476
      7475      7474      7477      7476      7474      7477      7477      7478      7479
      7477      7478      7480      7478      7480      7481      7478      7480      7482
      7478      7480      7530      7479      7478      7480      7480      7530      7531
      7480      7530      7532      7480      7530      7533      7481      7480      7482
      7481      7480      7530      7482      7480      7530      7483      7486      7487
      7483      7486      7488      7483      7486      7489      7484      7483      7485
      7484      7483      7486      7485      7483      7486      7486      7489      7490
      7486      7489      7491      7486      7489      7492      7487      7486      7488
      7487      7486      7489      7488      7486      7489      7489      7492      7493
      7489      7492      7494      7489      7492      7495      7490      7489      7491
      7490      7489      7492      7491      7489      7492      7492      7495      7496
      7492      7495      7497      7492      7495      7498      7493      7492      7494
      7493      7492      7495      7494      7492      7495      7495      7498      7499
      7495      7498      7500      7495      7498      7501      7496      7495      7497
      7496      7495      7498      7497      7495      7498      7498      7501      7502
      7498      7501      7503      7499      7498      7500      7499      7498      7501
      7500      7498      7501      7501      7503      7504      7501      7503      7505
      7502      7501      7503      7503      7505      7506      7503      7505      7507
      7503      7505      7508      7504      7503      7505      7505      7508      7509
      7505      7508      7510      7505      7508      7511      7506      7505      7507
      7506      7505      7508      7507      7505      7508      7508      7511      7512
      7508      7511      7513      7508      7511      7514      7509      7508      7510
      7509      7508      7511      7510      7508      7511      7511      7514      7515
      7511      7514      7516      7511      7514      7517      7512      7511      7513
      7512      7511      7514      7513      7511      7514      7514      7517      7518
      7514      7517      7519      7514      7517      7520      7515      7514      7516
      7515      7514      7517      7516      7514      7517      7517      7520      7521
      7517      7520      7522      7517      7520      7523      7518      7517      7519
      7518      7517      7520      7519      7517      7520      7520      7523      7524
      7520      7523      7525      7520      7523      7526      7521      7520      7522
      7521      7520      7523      7522      7520      7523      7523      7526      7527
      7523      7526      7528      7523      7526      7529      7524      7523      7525
      7524      7523      7526      7525      7523      7526      7527      7526      7528
      7527      7526      7529      7528      7526      7529      7530      7533      7534
      7530      7533      7535      7530      7533      7536      7531      7530      7532
      7531      7530      7533      7532      7530      7533      7533      7536      7537
      7533      7536      7538      7533      7536      7539      7534      7533      7535
      7534      7533      7536      7535      7533      7536      7536      7539      7540
      7536      7539      7541      7536      7539      7542      7537      7536      7538
      7537      7536      7539      7538      7536      7539      7539      7542      7543
      7539      7542      7544      7539      7542      7545      7540      7539      7541
      7540      7539      7542      7541      7539      7542      7542      7545      7546
      7542      7545      7547      7542      7545      7548      7543      7542      7544
      7543      7542      7545      7544      7542      7545      7545      7548      7549
      7545      7548      7550      7545      7548      7551      7546      7545      7547
      7546      7545      7548      7547      7545      7548      7548      7551      7552
      7548      7551      7553      7548      7551      7554      7549      7548      7550
      7549      7548      7551      7550      7548      7551      7551      7554      7555
      7551      7554      7556      7551      7554      7557      7552      7551      7553
      7552      7551      7554      7553      7551      7554      7554      7557      7558
      7554      7557      7559      7554      7557      7560      7555      7554      7556
      7555      7554      7557      7556      7554      7557      7557      7560      7561
      7557      7560      7562      7557      7560      7563      7558      7557      7559
      7558      7557      7560      7559      7557      7560      7560      7563      7564
      7560      7563      7565      7560      7563      7566      7561      7560      7562
      7561      7560      7563      7562      7560      7563      7563      7566      7567
      7563      7566      7568      7563      7566      7569      7564      7563      7565
      7564      7563      7566      7565      7563      7566      7566      7569      7570
      7566      7569      7571      7566      7569      7572      7567      7566      7568
      7567      7566      7569      7568      7566      7569      7570      7569      7571
      7570      7569      7572      7571      7569      7572      7573      7574      7575
      7573      7574      7576      7573      7574      7589      7573      7577      7578
      7573      7577      7579      7573      7577      7580      7573      7581      7582
      7573      7581      7583      7573      7581      7584      7573      7585      7586
      7573      7585      7587      7573      7585      7588      7574      7573      7577
      7574      7573      7581      7574      7573      7585      7574      7589      7590
      7574      7589      7591      7574      7589      7595      7575      7574      7576
      7575      7574      7589      7576      7574      7589      7577      7573      7581
      7577      7573      7585      7578      7577      7579      7578      7577      7580
      7579      7577      7580      7581      7573      7585      7582      7581      7583
      7582      7581      7584      7583      7581      7584      7586      7585      7587
      7586      7585      7588      7587      7585      7588      7589      7595      7592
      7590      7589      7591      7590      7589      7595      7591      7589      7595
      7592      7596      7597      7593      7592      7594      7593      7592      7595
      7593      7592      7596      7594      7592      7595      7594      7592      7596
      7595      7592      7596      7596      7597      7598      7596      7597      7599
      7596      7597      7600      7597      7600      7601      7597      7600      7602
      7597      7600      7608      7598      7597      7599      7598      7597      7600
      7599      7597      7600      7600      7602      7603      7600      7608      7609
      7600      7608      7610      7600      7608      7611      7601      7600      7602
      7601      7600      7608      7602      7600      7608      7602      7603      7604
      7602      7603      7605      7603      7605      7606      7603      7605      7607
      7603      7605      7617      7604      7603      7605      7605      7617      7618
      7605      7617      7619      7605      7617      7620      7606      7605      7607
      7606      7605      7617      7607      7605      7617      7608      7611      7612
      7609      7608      7610      7609      7608      7611      7610      7608      7611
      7611      7612      7613      7611      7612      7614      7612      7614      7615
      7612      7614      7616      7612      7614      7664      7613      7612      7614
      7614      7664      7665      7614      7664      7666      7614      7664      7667
      7615      7614      7616      7615      7614      7664      7616      7614      7664
      7617      7620      7621      7617      7620      7622      7617      7620      7623
      7618      7617      7619      7618      7617      7620      7619      7617      7620
      7620      7623      7624      7620      7623      7625      7620      7623      7626
      7621      7620      7622      7621      7620      7623      7622      7620      7623
      7623      7626      7627      7623      7626      7628      7623      7626      7629
      7624      7623      7625      7624      7623      7626      7625      7623      7626
      7626      7629      7630      7626      7629      7631      7626      7629      7632
      7627      7626      7628      7627      7626      7629      7628      7626      7629
      7629      7632      7633      7629      7632      7634      7629      7632      7635
      7630      7629      7631      7630      7629      7632      7631      7629      7632
      7632      7635      7636      7632      7635      7637      7633      7632      7634
      7633      7632      7635      7634      7632      7635      7635      7637      7638
      7635      7637      7639      7636      7635      7637      7637      7639      7640
      7637      7639      7641      7637      7639      7642      7638      7637      7639
      7639      7642      7643      7639      7642      7644      7639      7642      7645
      7640      7639      7641      7640      7639      7642      7641      7639      7642
      7642      7645      7646      7642      7645      7647      7642      7645      7648
      7643      7642      7644      7643      7642      7645      7644      7642      7645
      7645      7648      7649      7645      7648      7650      7645      7648      7651
      7646      7645      7647      7646      7645      7648      7647      7645      7648
      7648      7651      7652      7648      7651      7653      7648      7651      7654
      7649      7648      7650      7649      7648      7651      7650      7648      7651
      7651      7654      7655      7651      7654      7656      7651      7654      7657
      7652      7651      7653      7652      7651      7654      7653      7651      7654
      7654      7657      7658      7654      7657      7659      7654      7657      7660
      7655      7654      7656      7655      7654      7657      7656      7654      7657
      7657      7660      7661      7657      7660      7662      7657      7660      7663
      7658      7657      7659      7658      7657      7660      7659      7657      7660
      7661      7660      7662      7661      7660      7663      7662      7660      7663
      7664      7667      7668      7664      7667      7669      7664      7667      7670
      7665      7664      7666      7665      7664      7667      7666      7664      7667
      7667      7670      7671      7667      7670      7672      7667      7670      7673
      7668      7667      7669      7668      7667      7670      7669      7667      7670
      7670      7673      7674      7670      7673      7675      7670      7673      7676
      7671      7670      7672      7671      7670      7673      7672      7670      7673
      7673      7676      7677      7673      7676      7678      7673      7676      7679
      7674      7673      7675      7674      7673      7676      7675      7673      7676
      7676      7679      7680      7676      7679      7681      7676      7679      7682
      7677      7676      7678      7677      7676      7679      7678      7676      7679
      7679      7682      7683      7679      7682      7684      7679      7682      7685
      7680      7679      7681      7680      7679      7682      7681      7679      7682
      7682      7685      7686      7682      7685      7687      7682      7685      7688
      7683      7682      7684      7683      7682      7685      7684      7682      7685
      7685      7688      7689      7685      7688      7690      7685      7688      7691
      7686      7685      7687      7686      7685      7688      7687      7685      7688
      7688      7691      7692      7688      7691      7693      7688      7691      7694
      7689      7688      7690      7689      7688      7691      7690      7688      7691
      7691      7694      7695      7691      7694      7696      7691      7694      7697
      7692      7691      7693      7692      7691      7694      7693      7691      7694
      7694      7697      7698      7694      7697      7699      7694      7697      7700
      7695      7694      7696      7695      7694      7697      7696      7694      7697
      7697      7700      7701      7697      7700      7702      7697      7700      7703
      7698      7697      7699      7698      7697      7700      7699      7697      7700
      7700      7703      7704      7700      7703      7705      7700      7703      7706
      7701      7700      7702      7701      7700      7703      7702      7700      7703
      7704      7703      7705      7704      7703      7706      7705      7703      7706
      7707      7708      7709      7707      7708      7710      7707      7708      7723
      7707      7711      7712      7707      7711      7713      7707      7711      7714
      7707      7715      7716      7707      7715      7717      7707      7715      7718
      7707      7719      7720      7707      7719      7721      7707      7719      7722
      7708      7707      7711      7708      7707      7715      7708      7707      7719
      7708      7723      7724      7708      7723      7725      7708      7723      7729
      7709      7708      7710      7709      7708      7723      7710      7708      7723
      7711      7707      7715      7711      7707      7719      7712      7711      7713
      7712      7711      7714      7713      7711      7714      7715      7707      7719
      7716      7715      7717      7716      7715      7718      7717      7715      7718
      7720      7719      7721      7720      7719      7722      7721      7719      7722
      7723      7729      7726      7724      7723      7725      7724      7723      7729
      7725      7723      7729      7726      7730      7731      7727      7726      7728
      7727      7726      7729      7727      7726      7730      7728      7726      7729
      7728      7726      7730      7729      7726      7730      7730      7731      7732
      7730      7731      7733      7730      7731      7734      7731      7734      7735
      7731      7734      7736      7731      7734      7742      7732      7731      7733
      7732      7731      7734      7733      7731      7734      7734      7736      7737
      7734      7742      7743      7734      7742      7744      7734      7742      7745
      7735      7734      7736      7735      7734      7742      7736      7734      7742
      7736      7737      7738      7736      7737      7739      7737      7739      7740
      7737      7739      7741      7737      7739      7751      7738      7737      7739
      7739      7751      7752      7739      7751      7753      7739      7751      7754
      7740      7739      7741      7740      7739      7751      7741      7739      7751
      7742      7745      7746      7743      7742      7744      7743      7742      7745
      7744      7742      7745      7745      7746      7747      7745      7746      7748
      7746      7748      7749      7746      7748      7750      7746      7748      7798
      7747      7746      7748      7748      7798      7799      7748      7798      7800
      7748      7798      7801      7749      7748      7750      7749      7748      7798
      7750      7748      7798      7751      7754      7755      7751      7754      7756
      7751      7754      7757      7752      7751      7753      7752      7751      7754
      7753      7751      7754      7754      7757      7758      7754      7757      7759
      7754      7757      7760      7755      7754      7756      7755      7754      7757
      7756      7754      7757      7757      7760      7761      7757      7760      7762
      7757      7760      7763      7758      7757      7759      7758      7757      7760
      7759      7757      7760      7760      7763      7764      7760      7763      7765
      7760      7763      7766      7761      7760      7762      7761      7760      7763
      7762      7760      7763      7763      7766      7767      7763      7766      7768
      7763      7766      7769      7764      7763      7765      7764      7763      7766
      7765      7763      7766      7766      7769      7770      7766      7769      7771
      7767      7766      7768      7767      7766      7769      7768      7766      7769
      7769      7771      7772      7769      7771      7773      7770      7769      7771
      7771      7773      7774      7771      7773      7775      7771      7773      7776
      7772      7771      7773      7773      7776      7777      7773      7776      7778
      7773      7776      7779      7774      7773      7775      7774      7773      7776
      7775      7773      7776      7776      7779      7780      7776      7779      7781
      7776      7779      7782      7777      7776      7778      7777      7776      7779
      7778      7776      7779      7779      7782      7783      7779      7782      7784
      7779      7782      7785      7780      7779      7781      7780      7779      7782
      7781      7779      7782      7782      7785      7786      7782      7785      7787
      7782      7785      7788      7783      7782      7784      7783      7782      7785
      7784      7782      7785      7785      7788      7789      7785      7788      7790
      7785      7788      7791      7786      7785      7787      7786      7785      7788
      7787      7785      7788      7788      7791      7792      7788      7791      7793
      7788      7791      7794      7789      7788      7790      7789      7788      7791
      7790      7788      7791      7791      7794      7795      7791      7794      7796
      7791      7794      7797      7792      7791      7793      7792      7791      7794
      7793      7791      7794      7795      7794      7796      7795      7794      7797
      7796      7794      7797      7798      7801      7802      7798      7801      7803
      7798      7801      7804      7799      7798      7800      7799      7798      7801
      7800      7798      7801      7801      7804      7805      7801      7804      7806
      7801      7804      7807      7802      7801      7803      7802      7801      7804
      7803      7801      7804      7804      7807      7808      7804      7807      7809
      7804      7807      7810      7805      7804      7806      7805      7804      7807
      7806      7804      7807      7807      7810      7811      7807      7810      7812
      7807      7810      7813      7808      7807      7809      7808      7807      7810
      7809      7807      7810      7810      7813      7814      7810      7813      7815
      7810      7813      7816      7811      7810      7812      7811      7810      7813
      7812      7810      7813      7813      7816      7817      7813      7816      7818
      7813      7816      7819      7814      7813      7815      7814      7813      7816
      7815      7813      7816      7816      7819      7820      7816      7819      7821
      7816      7819      7822      7817      7816      7818      7817      7816      7819
      7818      7816      7819      7819      7822      7823      7819      7822      7824
      7819      7822      7825      7820      7819      7821      7820      7819      7822
      7821      7819      7822      7822      7825      7826      7822      7825      7827
      7822      7825      7828      7823      7822      7824      7823      7822      7825
      7824      7822      7825      7825      7828      7829      7825      7828      7830
      7825      7828      7831      7826      7825      7827      7826      7825      7828
      7827      7825      7828      7828      7831      7832      7828      7831      7833
      7828      7831      7834      7829      7828      7830      7829      7828      7831
      7830      7828      7831      7831      7834      7835      7831      7834      7836
      7831      7834      7837      7832      7831      7833      7832      7831      7834
      7833      7831      7834      7834      7837      7838      7834      7837      7839
      7834      7837      7840      7835      7834      7836      7835      7834      7837
      7836      7834      7837      7838      7837      7839      7838      7837      7840
      7839      7837      7840      7841      7842      7843      7841      7842      7844
      7841      7842      7857      7841      7845      7846      7841      7845      7847
      7841      7845      7848      7841      7849      7850      7841      7849      7851
      7841      7849      7852      7841      7853      7854      7841      7853      7855
      7841      7853      7856      7842      7841      7845      7842      7841      7849
      7842      7841      7853      7842      7857      7858      7842      7857      7859
      7842      7857      7863      7843      7842      7844      7843      7842      7857
      7844      7842      7857      7845      7841      7849      7845      7841      7853
      7846      7845      7847      7846      7845      7848      7847      7845      7848
      7849      7841      7853      7850      7849      7851      7850      7849      7852
      7851      7849      7852      7854      7853      7855      7854      7853      7856
      7855      7853      7856      7857      7863      7860      7858      7857      7859
      7858      7857      7863      7859      7857      7863      7860      7864      7865
      7861      7860      7862      7861      7860      7863      7861      7860      7864
      7862      7860      7863      7862      7860      7864      7863      7860      7864
      7864      7865      7866      7864      7865      7867      7864      7865      7868
      7865      7868      7869      7865      7868      7870      7865      7868      7876
      7866      7865      7867      7866      7865      7868      7867      7865      7868
      7868      7870      7871      7868      7876      7877      7868      7876      7878
      7868      7876      7879      7869      7868      7870      7869      7868      7876
      7870      7868      7876      7870      7871      7872      7870      7871      7873
      7871      7873      7874      7871      7873      7875      7871      7873      7885
      7872      7871      7873      7873      7885      7886      7873      7885      7887
      7873      7885      7888      7874      7873      7875      7874      7873      7885
      7875      7873      7885      7876      7879      7880      7877      7876      7878
      7877      7876      7879      7878      7876      7879      7879      7880      7881
      7879      7880      7882      7880      7882      7883      7880      7882      7884
      7880      7882      7932      7881      7880      7882      7882      7932      7933
      7882      7932      7934      7882      7932      7935      7883      7882      7884
      7883      7882      7932      7884      7882      7932      7885      7888      7889
      7885      7888      7890      7885      7888      7891      7886      7885      7887
      7886      7885      7888      7887      7885      7888      7888      7891      7892
      7888      7891      7893      7888      7891      7894      7889      7888      7890
      7889      7888      7891      7890      7888      7891      7891      7894      7895
      7891      7894      7896      7891      7894      7897      7892      7891      7893
      7892      7891      7894      7893      7891      7894      7894      7897      7898
      7894      7897      7899      7894      7897      7900      7895      7894      7896
      7895      7894      7897      7896      7894      7897      7897      7900      7901
      7897      7900      7902      7897      7900      7903      7898      7897      7899
      7898      7897      7900      7899      7897      7900      7900      7903      7904
      7900      7903      7905      7901      7900      7902      7901      7900      7903
      7902      7900      7903      7903      7905      7906      7903      7905      7907
      7904      7903      7905      7905      7907      7908      7905      7907      7909
      7905      7907      7910      7906      7905      7907      7907      7910      7911
      7907      7910      7912      7907      7910      7913      7908      7907      7909
      7908      7907      7910      7909      7907      7910      7910      7913      7914
      7910      7913      7915      7910      7913      7916      7911      7910      7912
      7911      7910      7913      7912      7910      7913      7913      7916      7917
      7913      7916      7918      7913      7916      7919      7914      7913      7915
      7914      7913      7916      7915      7913      7916      7916      7919      7920
      7916      7919      7921      7916      7919      7922      7917      7916      7918
      7917      7916      7919      7918      7916      7919      7919      7922      7923
      7919      7922      7924      7919      7922      7925      7920      7919      7921
      7920      7919      7922      7921      7919      7922      7922      7925      7926
      7922      7925      7927      7922      7925      7928      7923      7922      7924
      7923      7922      7925      7924      7922      7925      7925      7928      7929
      7925      7928      7930      7925      7928      7931      7926      7925      7927
      7926      7925      7928      7927      7925      7928      7929      7928      7930
      7929      7928      7931      7930      7928      7931      7932      7935      7936
      7932      7935      7937      7932      7935      7938      7933      7932      7934
      7933      7932      7935      7934      7932      7935      7935      7938      7939
      7935      7938      7940      7935      7938      7941      7936      7935      7937
      7936      7935      7938      7937      7935      7938      7938      7941      7942
      7938      7941      7943      7938      7941      7944      7939      7938      7940
      7939      7938      7941      7940      7938      7941      7941      7944      7945
      7941      7944      7946      7941      7944      7947      7942      7941      7943
      7942      7941      7944      7943      7941      7944      7944      7947      7948
      7944      7947      7949      7944      7947      7950      7945      7944      7946
      7945      7944      7947      7946      7944      7947      7947      7950      7951
      7947      7950      7952      7947      7950      7953      7948      7947      7949
      7948      7947      7950      7949      7947      7950      7950      7953      7954
      7950      7953      7955      7950      7953      7956      7951      7950      7952
      7951      7950      7953      7952      7950      7953      7953      7956      7957
      7953      7956      7958      7953      7956      7959      7954      7953      7955
      7954      7953      7956      7955      7953      7956      7956      7959      7960
      7956      7959      7961      7956      7959      7962      7957      7956      7958
      7957      7956      7959      7958      7956      7959      7959      7962      7963
      7959      7962      7964      7959      7962      7965      7960      7959      7961
      7960      7959      7962      7961      7959      7962      7962      7965      7966
      7962      7965      7967      7962      7965      7968      7963      7962      7964
      7963      7962      7965      7964      7962      7965      7965      7968      7969
      7965      7968      7970      7965      7968      7971      7966      7965      7967
      7966      7965      7968      7967      7965      7968      7968      7971      7972
      7968      7971      7973      7968      7971      7974      7969      7968      7970
      7969      7968      7971      7970      7968      7971      7972      7971      7973
      7972      7971      7974      7973      7971      7974      7975      7976      7977
      7975      7976      7978      7975      7976      7991      7975      7979      7980
      7975      7979      7981      7975      7979      7982      7975      7983      7984
      7975      7983      7985      7975      7983      7986      7975      7987      7988
      7975      7987      7989      7975      7987      7990      7976      7975      7979
      7976      7975      7983      7976      7975      7987      7976      7991      7992
      7976      7991      7993      7976      7991      7997      7977      7976      7978
      7977      7976      7991      7978      7976      7991      7979      7975      7983
      7979      7975      7987      7980      7979      7981      7980      7979      7982
      7981      7979      7982      7983      7975      7987      7984      7983      7985
      7984      7983      7986      7985      7983      7986      7988      7987      7989
      7988      7987      7990      7989      7987      7990      7991      7997      7994
      7992      7991      7993      7992      7991      7997      7993      7991      7997
      7994      7998      7999      7995      7994      7996      7995      7994      7997
      7995      7994      7998      7996      7994      7997      7996      7994      7998
      7997      7994      7998      7998      7999      8000      7998      7999      8001
      7998      7999      8002      7999      8002      8003      7999      8002      8004
      7999      8002      8010      8000      7999      8001      8000      7999      8002
      8001      7999      8002      8002      8004      8005      8002      8010      8011
      8002      8010      8012      8002      8010      8013      8003      8002      8004
      8003      8002      8010      8004      8002      8010      8004      8005      8006
      8004      8005      8007      8005      8007      8008      8005      8007      8009
      8005      8007      8019      8006      8005      8007      8007      8019      8020
      8007      8019      8021      8007      8019      8022      8008      8007      8009
      8008      8007      8019      8009      8007      8019      8010      8013      8014
      8011      8010      8012      8011      8010      8013      8012      8010      8013
      8013      8014      8015      8013      8014      8016      8014      8016      8017
      8014      8016      8018      8014      8016      8066      8015      8014      8016
      8016      8066      8067      8016      8066      8068      8016      8066      8069
      8017      8016      8018      8017      8016      8066      8018      8016      8066
      8019      8022      8023      8019      8022      8024      8019      8022      8025
      8020      8019      8021      8020      8019      8022      8021      8019      8022
      8022      8025      8026      8022      8025      8027      8022      8025      8028
      8023      8022      8024      8023      8022      8025      8024      8022      8025
      8025      8028      8029      8025      8028      8030      8025      8028      8031
      8026      8025      8027      8026      8025      8028      8027      8025      8028
      8028      8031      8032      8028      8031      8033      8028      8031      8034
      8029      8028      8030      8029      8028      8031      8030      8028      8031
      8031      8034      8035      8031      8034      8036      8031      8034      8037
      8032      8031      8033      8032      8031      8034      8033      8031      8034
      8034      8037      8038      8034      8037      8039      8035      8034      8036
      8035      8034      8037      8036      8034      8037      8037      8039      8040
      8037      8039      8041      8038      8037      8039      8039      8041      8042
      8039      8041      8043      8039      8041      8044      8040      8039      8041
      8041      8044      8045      8041      8044      8046      8041      8044      8047
      8042      8041      8043      8042      8041      8044      8043      8041      8044
      8044      8047      8048      8044      8047      8049      8044      8047      8050
      8045      8044      8046      8045      8044      8047      8046      8044      8047
      8047      8050      8051      8047      8050      8052      8047      8050      8053
      8048      8047      8049      8048      8047      8050      8049      8047      8050
      8050      8053      8054      8050      8053      8055      8050      8053      8056
      8051      8050      8052      8051      8050      8053      8052      8050      8053
      8053      8056      8057      8053      8056      8058      8053      8056      8059
      8054      8053      8055      8054      8053      8056      8055      8053      8056
      8056      8059      8060      8056      8059      8061      8056      8059      8062
      8057      8056      8058      8057      8056      8059      8058      8056      8059
      8059      8062      8063      8059      8062      8064      8059      8062      8065
      8060      8059      8061      8060      8059      8062      8061      8059      8062
      8063      8062      8064      8063      8062      8065      8064      8062      8065
      8066      8069      8070      8066      8069      8071      8066      8069      8072
      8067      8066      8068      8067      8066      8069      8068      8066      8069
      8069      8072      8073      8069      8072      8074      8069      8072      8075
      8070      8069      8071      8070      8069      8072      8071      8069      8072
      8072      8075      8076      8072      8075      8077      8072      8075      8078
      8073      8072      8074      8073      8072      8075      8074      8072      8075
      8075      8078      8079      8075      8078      8080      8075      8078      8081
      8076      8075      8077      8076      8075      8078      8077      8075      8078
      8078      8081      8082      8078      8081      8083      8078      8081      8084
      8079      8078      8080      8079      8078      8081      8080      8078      8081
      8081      8084      8085      8081      8084      8086      8081      8084      8087
      8082      8081      8083      8082      8081      8084      8083      8081      8084
      8084      8087      8088      8084      8087      8089      8084      8087      8090
      8085      8084      8086      8085      8084      8087      8086      8084      8087
      8087      8090      8091      8087      8090      8092      8087      8090      8093
      8088      8087      8089      8088      8087      8090      8089      8087      8090
      8090      8093      8094      8090      8093      8095      8090      8093      8096
      8091      8090      8092      8091      8090      8093      8092      8090      8093
      8093      8096      8097      8093      8096      8098      8093      8096      8099
      8094      8093      8095      8094      8093      8096      8095      8093      8096
      8096      8099      8100      8096      8099      8101      8096      8099      8102
      8097      8096      8098      8097      8096      8099      8098      8096      8099
      8099      8102      8103      8099      8102      8104      8099      8102      8105
      8100      8099      8101      8100      8099      8102      8101      8099      8102
      8102      8105      8106      8102      8105      8107      8102      8105      8108
      8103      8102      8104      8103      8102      8105      8104      8102      8105
      8106      8105      8107      8106      8105      8108      8107      8105      8108
      8109      8110      8111      8109      8110      8112      8109      8110      8125
      8109      8113      8114      8109      8113      8115      8109      8113      8116
      8109      8117      8118      8109      8117      8119      8109      8117      8120
      8109      8121      8122      8109      8121      8123      8109      8121      8124
      8110      8109      8113      8110      8109      8117      8110      8109      8121
      8110      8125      8126      8110      8125      8127      8110      8125      8131
      8111      8110      8112      8111      8110      8125      8112      8110      8125
      8113      8109      8117      8113      8109      8121      8114      8113      8115
      8114      8113      8116      8115      8113      8116      8117      8109      8121
      8118      8117      8119      8118      8117      8120      8119      8117      8120
      8122      8121      8123      8122      8121      8124      8123      8121      8124
      8125      8131      8128      8126      8125      8127      8126      8125      8131
      8127      8125      8131      8128      8132      8133      8129      8128      8130
      8129      8128      8131      8129      8128      8132      8130      8128      8131
      8130      8128      8132      8131      8128      8132      8132      8133      8134
      8132      8133      8135      8132      8133      8136      8133      8136      8137
      8133      8136      8138      8133      8136      8144      8134      8133      8135
      8134      8133      8136      8135      8133      8136      8136      8138      8139
      8136      8144      8145      8136      8144      8146      8136      8144      8147
      8137      8136      8138      8137      8136      8144      8138      8136      8144
      8138      8139      8140      8138      8139      8141      8139      8141      8142
      8139      8141      8143      8139      8141      8153      8140      8139      8141
      8141      8153      8154      8141      8153      8155      8141      8153      8156
      8142      8141      8143      8142      8141      8153      8143      8141      8153
      8144      8147      8148      8145      8144      8146      8145      8144      8147
      8146      8144      8147      8147      8148      8149      8147      8148      8150
      8148      8150      8151      8148      8150      8152      8148      8150      8200
      8149      8148      8150      8150      8200      8201      8150      8200      8202
      8150      8200      8203      8151      8150      8152      8151      8150      8200
      8152      8150      8200      8153      8156      8157      8153      8156      8158
      8153      8156      8159      8154      8153      8155      8154      8153      8156
      8155      8153      8156      8156      8159      8160      8156      8159      8161
      8156      8159      8162      8157      8156      8158      8157      8156      8159
      8158      8156      8159      8159      8162      8163      8159      8162      8164
      8159      8162      8165      8160      8159      8161      8160      8159      8162
      8161      8159      8162      8162      8165      8166      8162      8165      8167
      8162      8165      8168      8163      8162      8164      8163      8162      8165
      8164      8162      8165      8165      8168      8169      8165      8168      8170
      8165      8168      8171      8166      8165      8167      8166      8165      8168
      8167      8165      8168      8168      8171      8172      8168      8171      8173
      8169      8168      8170      8169      8168      8171      8170      8168      8171
      8171      8173      8174      8171      8173      8175      8172      8171      8173
      8173      8175      8176      8173      8175      8177      8173      8175      8178
      8174      8173      8175      8175      8178      8179      8175      8178      8180
      8175      8178      8181      8176      8175      8177      8176      8175      8178
      8177      8175      8178      8178      8181      8182      8178      8181      8183
      8178      8181      8184      8179      8178      8180      8179      8178      8181
      8180      8178      8181      8181      8184      8185      8181      8184      8186
      8181      8184      8187      8182      8181      8183      8182      8181      8184
      8183      8181      8184      8184      8187      8188      8184      8187      8189
      8184      8187      8190      8185      8184      8186      8185      8184      8187
      8186      8184      8187      8187      8190      8191      8187      8190      8192
      8187      8190      8193      8188      8187      8189      8188      8187      8190
      8189      8187      8190      8190      8193      8194      8190      8193      8195
      8190      8193      8196      8191      8190      8192      8191      8190      8193
      8192      8190      8193      8193      8196      8197      8193      8196      8198
      8193      8196      8199      8194      8193      8195      8194      8193      8196
      8195      8193      8196      8197      8196      8198      8197      8196      8199
      8198      8196      8199      8200      8203      8204      8200      8203      8205
      8200      8203      8206      8201      8200      8202      8201      8200      8203
      8202      8200      8203      8203      8206      8207      8203      8206      8208
      8203      8206      8209      8204      8203      8205      8204      8203      8206
      8205      8203      8206      8206      8209      8210      8206      8209      8211
      8206      8209      8212      8207      8206      8208      8207      8206      8209
      8208      8206      8209      8209      8212      8213      8209      8212      8214
      8209      8212      8215      8210      8209      8211      8210      8209      8212
      8211      8209      8212      8212      8215      8216      8212      8215      8217
      8212      8215      8218      8213      8212      8214      8213      8212      8215
      8214      8212      8215      8215      8218      8219      8215      8218      8220
      8215      8218      8221      8216      8215      8217      8216      8215      8218
      8217      8215      8218      8218      8221      8222      8218      8221      8223
      8218      8221      8224      8219      8218      8220      8219      8218      8221
      8220      8218      8221      8221      8224      8225      8221      8224      8226
      8221      8224      8227      8222      8221      8223      8222      8221      8224
      8223      8221      8224      8224      8227      8228      8224      8227      8229
      8224      8227      8230      8225      8224      8226      8225      8224      8227
      8226      8224      8227      8227      8230      8231      8227      8230      8232
      8227      8230      8233      8228      8227      8229      8228      8227      8230
      8229      8227      8230      8230      8233      8234      8230      8233      8235
      8230      8233      8236      8231      8230      8232      8231      8230      8233
      8232      8230      8233      8233      8236      8237      8233      8236      8238
      8233      8236      8239      8234      8233      8235      8234      8233      8236
      8235      8233      8236      8236      8239      8240      8236      8239      8241
      8236      8239      8242      8237      8236      8238      8237      8236      8239
      8238      8236      8239      8240      8239      8241      8240      8239      8242
      8241      8239      8242      8243      8244      8245      8243      8244      8246
      8243      8244      8259      8243      8247      8248      8243      8247      8249
      8243      8247      8250      8243      8251      8252      8243      8251      8253
      8243      8251      8254      8243      8255      8256      8243      8255      8257
      8243      8255      8258      8244      8243      8247      8244      8243      8251
      8244      8243      8255      8244      8259      8260      8244      8259      8261
      8244      8259      8265      8245      8244      8246      8245      8244      8259
      8246      8244      8259      8247      8243      8251      8247      8243      8255
      8248      8247      8249      8248      8247      8250      8249      8247      8250
      8251      8243      8255      8252      8251      8253      8252      8251      8254
      8253      8251      8254      8256      8255      8257      8256      8255      8258
      8257      8255      8258      8259      8265      8262      8260      8259      8261
      8260      8259      8265      8261      8259      8265      8262      8266      8267
      8263      8262      8264      8263      8262      8265      8263      8262      8266
      8264      8262      8265      8264      8262      8266      8265      8262      8266
      8266      8267      8268      8266      8267      8269      8266      8267      8270
      8267      8270      8271      8267      8270      8272      8267      8270      8278
      8268      8267      8269      8268      8267      8270      8269      8267      8270
      8270      8272      8273      8270      8278      8279      8270      8278      8280
      8270      8278      8281      8271      8270      8272      8271      8270      8278
      8272      8270      8278      8272      8273      8274      8272      8273      8275
      8273      8275      8276      8273      8275      8277      8273      8275      8287
      8274      8273      8275      8275      8287      8288      8275      8287      8289
      8275      8287      8290      8276      8275      8277      8276      8275      8287
      8277      8275      8287      8278      8281      8282      8279      8278      8280
      8279      8278      8281      8280      8278      8281      8281      8282      8283
      8281      8282      8284      8282      8284      8285      8282      8284      8286
      8282      8284      8334      8283      8282      8284      8284      8334      8335
      8284      8334      8336      8284      8334      8337      8285      8284      8286
      8285      8284      8334      8286      8284      8334      8287      8290      8291
      8287      8290      8292      8287      8290      8293      8288      8287      8289
      8288      8287      8290      8289      8287      8290      8290      8293      8294
      8290      8293      8295      8290      8293      8296      8291      8290      8292
      8291      8290      8293      8292      8290      8293      8293      8296      8297
      8293      8296      8298      8293      8296      8299      8294      8293      8295
      8294      8293      8296      8295      8293      8296      8296      8299      8300
      8296      8299      8301      8296      8299      8302      8297      8296      8298
      8297      8296      8299      8298      8296      8299      8299      8302      8303
      8299      8302      8304      8299      8302      8305      8300      8299      8301
      8300      8299      8302      8301      8299      8302      8302      8305      8306
      8302      8305      8307      8303      8302      8304      8303      8302      8305
      8304      8302      8305      8305      8307      8308      8305      8307      8309
      8306      8305      8307      8307      8309      8310      8307      8309      8311
      8307      8309      8312      8308      8307      8309      8309      8312      8313
      8309      8312      8314      8309      8312      8315      8310      8309      8311
      8310      8309      8312      8311      8309      8312      8312      8315      8316
      8312      8315      8317      8312      8315      8318      8313      8312      8314
      8313      8312      8315      8314      8312      8315      8315      8318      8319
      8315      8318      8320      8315      8318      8321      8316      8315      8317
      8316      8315      8318      8317      8315      8318      8318      8321      8322
      8318      8321      8323      8318      8321      8324      8319      8318      8320
      8319      8318      8321      8320      8318      8321      8321      8324      8325
      8321      8324      8326      8321      8324      8327      8322      8321      8323
      8322      8321      8324      8323      8321      8324      8324      8327      8328
      8324      8327      8329      8324      8327      8330      8325      8324      8326
      8325      8324      8327      8326      8324      8327      8327      8330      8331
      8327      8330      8332      8327      8330      8333      8328      8327      8329
      8328      8327      8330      8329      8327      8330      8331      8330      8332
      8331      8330      8333      8332      8330      8333      8334      8337      8338
      8334      8337      8339      8334      8337      8340      8335      8334      8336
      8335      8334      8337      8336      8334      8337      8337      8340      8341
      8337      8340      8342      8337      8340      8343      8338      8337      8339
      8338      8337      8340      8339      8337      8340      8340      8343      8344
      8340      8343      8345      8340      8343      8346      8341      8340      8342
      8341      8340      8343      8342      8340      8343      8343      8346      8347
      8343      8346      8348      8343      8346      8349      8344      8343      8345
      8344      8343      8346      8345      8343      8346      8346      8349      8350
      8346      8349      8351      8346      8349      8352      8347      8346      8348
      8347      8346      8349      8348      8346      8349      8349      8352      8353
      8349      8352      8354      8349      8352      8355      8350      8349      8351
      8350      8349      8352      8351      8349      8352      8352      8355      8356
      8352      8355      8357      8352      8355      8358      8353      8352      8354
      8353      8352      8355      8354      8352      8355      8355      8358      8359
      8355      8358      8360      8355      8358      8361      8356      8355      8357
      8356      8355      8358      8357      8355      8358      8358      8361      8362
      8358      8361      8363      8358      8361      8364      8359      8358      8360
      8359      8358      8361      8360      8358      8361      8361      8364      8365
      8361      8364      8366      8361      8364      8367      8362      8361      8363
      8362      8361      8364      8363      8361      8364      8364      8367      8368
      8364      8367      8369      8364      8367      8370      8365      8364      8366
      8365      8364      8367      8366      8364      8367      8367      8370      8371
      8367      8370      8372      8367      8370      8373      8368      8367      8369
      8368      8367      8370      8369      8367      8370      8370      8373      8374
      8370      8373      8375      8370      8373      8376      8371      8370      8372
      8371      8370      8373      8372      8370      8373      8374      8373      8375
      8374      8373      8376      8375      8373      8376      8377      8378      8379
      8377      8378      8380      8377      8378      8393      8377      8381      8382
      8377      8381      8383      8377      8381      8384      8377      8385      8386
      8377      8385      8387      8377      8385      8388      8377      8389      8390
      8377      8389      8391      8377      8389      8392      8378      8377      8381
      8378      8377      8385      8378      8377      8389      8378      8393      8394
      8378      8393      8395      8378      8393      8399      8379      8378      8380
      8379      8378      8393      8380      8378      8393      8381      8377      8385
      8381      8377      8389      8382      8381      8383      8382      8381      8384
      8383      8381      8384      8385      8377      8389      8386      8385      8387
      8386      8385      8388      8387      8385      8388      8390      8389      8391
      8390      8389      8392      8391      8389      8392      8393      8399      8396
      8394      8393      8395      8394      8393      8399      8395      8393      8399
      8396      8400      8401      8397      8396      8398      8397      8396      8399
      8397      8396      8400      8398      8396      8399      8398      8396      8400
      8399      8396      8400      8400      8401      8402      8400      8401      8403
      8400      8401      8404      8401      8404      8405      8401      8404      8406
      8401      8404      8412      8402      8401      8403      8402      8401      8404
      8403      8401      8404      8404      8406      8407      8404      8412      8413
      8404      8412      8414      8404      8412      8415      8405      8404      8406
      8405      8404      8412      8406      8404      8412      8406      8407      8408
      8406      8407      8409      8407      8409      8410      8407      8409      8411
      8407      8409      8421      8408      8407      8409      8409      8421      8422
      8409      8421      8423      8409      8421      8424      8410      8409      8411
      8410      8409      8421      8411      8409      8421      8412      8415      8416
      8413      8412      8414      8413      8412      8415      8414      8412      8415
      8415      8416      8417      8415      8416      8418      8416      8418      8419
      8416      8418      8420      8416      8418      8468      8417      8416      8418
      8418      8468      8469      8418      8468      8470      8418      8468      8471
      8419      8418      8420      8419      8418      8468      8420      8418      8468
      8421      8424      8425      8421      8424      8426      8421      8424      8427
      8422      8421      8423      8422      8421      8424      8423      8421      8424
      8424      8427      8428      8424      8427      8429      8424      8427      8430
      8425      8424      8426      8425      8424      8427      8426      8424      8427
      8427      8430      8431      8427      8430      8432      8427      8430      8433
      8428      8427      8429      8428      8427      8430      8429      8427      8430
      8430      8433      8434      8430      8433      8435      8430      8433      8436
      8431      8430      8432      8431      8430      8433      8432      8430      8433
      8433      8436      8437      8433      8436      8438      8433      8436      8439
      8434      8433      8435      8434      8433      8436      8435      8433      8436
      8436      8439      8440      8436      8439      8441      8437      8436      8438
      8437      8436      8439      8438      8436      8439      8439      8441      8442
      8439      8441      8443      8440      8439      8441      8441      8443      8444
      8441      8443      8445      8441      8443      8446      8442      8441      8443
      8443      8446      8447      8443      8446      8448      8443      8446      8449
      8444      8443      8445      8444      8443      8446      8445      8443      8446
      8446      8449      8450      8446      8449      8451      8446      8449      8452
      8447      8446      8448      8447      8446      8449      8448      8446      8449
      8449      8452      8453      8449      8452      8454      8449      8452      8455
      8450      8449      8451      8450      8449      8452      8451      8449      8452
      8452      8455      8456      8452      8455      8457      8452      8455      8458
      8453      8452      8454      8453      8452      8455      8454      8452      8455
      8455      8458      8459      8455      8458      8460      8455      8458      8461
      8456      8455      8457      8456      8455      8458      8457      8455      8458
      8458      8461      8462      8458      8461      8463      8458      8461      8464
      8459      8458      8460      8459      8458      8461      8460      8458      8461
      8461      8464      8465      8461      8464      8466      8461      8464      8467
      8462      8461      8463      8462      8461      8464      8463      8461      8464
      8465      8464      8466      8465      8464      8467      8466      8464      8467
      8468      8471      8472      8468      8471      8473      8468      8471      8474
      8469      8468      8470      8469      8468      8471      8470      8468      8471
      8471      8474      8475      8471      8474      8476      8471      8474      8477
      8472      8471      8473      8472      8471      8474      8473      8471      8474
      8474      8477      8478      8474      8477      8479      8474      8477      8480
      8475      8474      8476      8475      8474      8477      8476      8474      8477
      8477      8480      8481      8477      8480      8482      8477      8480      8483
      8478      8477      8479      8478      8477      8480      8479      8477      8480
      8480      8483      8484      8480      8483      8485      8480      8483      8486
      8481      8480      8482      8481      8480      8483      8482      8480      8483
      8483      8486      8487      8483      8486      8488      8483      8486      8489
      8484      8483      8485      8484      8483      8486      8485      8483      8486
      8486      8489      8490      8486      8489      8491      8486      8489      8492
      8487      8486      8488      8487      8486      8489      8488      8486      8489
      8489      8492      8493      8489      8492      8494      8489      8492      8495
      8490      8489      8491      8490      8489      8492      8491      8489      8492
      8492      8495      8496      8492      8495      8497      8492      8495      8498
      8493      8492      8494      8493      8492      8495      8494      8492      8495
      8495      8498      8499      8495      8498      8500      8495      8498      8501
      8496      8495      8497      8496      8495      8498      8497      8495      8498
      8498      8501      8502      8498      8501      8503      8498      8501      8504
      8499      8498      8500      8499      8498      8501      8500      8498      8501
      8501      8504      8505      8501      8504      8506      8501      8504      8507
      8502      8501      8503      8502      8501      8504      8503      8501      8504
      8504      8507      8508      8504      8507      8509      8504      8507      8510
      8505      8504      8506      8505      8504      8507      8506      8504      8507
      8508      8507      8509      8508      8507      8510      8509      8507      8510
      8511      8512      8513      8511      8512      8514      8511      8512      8527
      8511      8515      8516      8511      8515      8517      8511      8515      8518
      8511      8519      8520      8511      8519      8521      8511      8519      8522
      8511      8523      8524      8511      8523      8525      8511      8523      8526
      8512      8511      8515      8512      8511      8519      8512      8511      8523
      8512      8527      8528      8512      8527      8529      8512      8527      8533
      8513      8512      8514      8513      8512      8527      8514      8512      8527
      8515      8511      8519      8515      8511      8523      8516      8515      8517
      8516      8515      8518      8517      8515      8518      8519      8511      8523
      8520      8519      8521      8520      8519      8522      8521      8519      8522
      8524      8523      8525      8524      8523      8526      8525      8523      8526
      8527      8533      8530      8528      8527      8529      8528      8527      8533
      8529      8527      8533      8530      8534      8535      8531      8530      8532
      8531      8530      8533      8531      8530      8534      8532      8530      8533
      8532      8530      8534      8533      8530      8534      8534      8535      8536
      8534      8535      8537      8534      8535      8538      8535      8538      8539
      8535      8538      8540      8535      8538      8546      8536      8535      8537
      8536      8535      8538      8537      8535      8538      8538      8540      8541
      8538      8546      8547      8538      8546      8548      8538      8546      8549
      8539      8538      8540      8539      8538      8546      8540      8538      8546
      8540      8541      8542      8540      8541      8543      8541      8543      8544
      8541      8543      8545      8541      8543      8555      8542      8541      8543
      8543      8555      8556      8543      8555      8557      8543      8555      8558
      8544      8543      8545      8544      8543      8555      8545      8543      8555
      8546      8549      8550      8547      8546      8548      8547      8546      8549
      8548      8546      8549      8549      8550      8551      8549      8550      8552
      8550      8552      8553      8550      8552      8554      8550      8552      8602
      8551      8550      8552      8552      8602      8603      8552      8602      8604
      8552      8602      8605      8553      8552      8554      8553      8552      8602
      8554      8552      8602      8555      8558      8559      8555      8558      8560
      8555      8558      8561      8556      8555      8557      8556      8555      8558
      8557      8555      8558      8558      8561      8562      8558      8561      8563
      8558      8561      8564      8559      8558      8560      8559      8558      8561
      8560      8558      8561      8561      8564      8565      8561      8564      8566
      8561      8564      8567      8562      8561      8563      8562      8561      8564
      8563      8561      8564      8564      8567      8568      8564      8567      8569
      8564      8567      8570      8565      8564      8566      8565      8564      8567
      8566      8564      8567      8567      8570      8571      8567      8570      8572
      8567      8570      8573      8568      8567      8569      8568      8567      8570
      8569      8567      8570      8570      8573      8574      8570      8573      8575
      8571      8570      8572      8571      8570      8573      8572      8570      8573
      8573      8575      8576      8573      8575      8577      8574      8573      8575
      8575      8577      8578      8575      8577      8579      8575      8577      8580
      8576      8575      8577      8577      8580      8581      8577      8580      8582
      8577      8580      8583      8578      8577      8579      8578      8577      8580
      8579      8577      8580      8580      8583      8584      8580      8583      8585
      8580      8583      8586      8581      8580      8582      8581      8580      8583
      8582      8580      8583      8583      8586      8587      8583      8586      8588
      8583      8586      8589      8584      8583      8585      8584      8583      8586
      8585      8583      8586      8586      8589      8590      8586      8589      8591
      8586      8589      8592      8587      8586      8588      8587      8586      8589
      8588      8586      8589      8589      8592      8593      8589      8592      8594
      8589      8592      8595      8590      8589      8591      8590      8589      8592
      8591      8589      8592      8592      8595      8596      8592      8595      8597
      8592      8595      8598      8593      8592      8594      8593      8592      8595
      8594      8592      8595      8595      8598      8599      8595      8598      8600
      8595      8598      8601      8596      8595      8597      8596      8595      8598
      8597      8595      8598      8599      8598      8600      8599      8598      8601
      8600      8598      8601      8602      8605      8606      8602      8605      8607
      8602      8605      8608      8603      8602      8604      8603      8602      8605
      8604      8602      8605      8605      8608      8609      8605      8608      8610
      8605      8608      8611      8606      8605      8607      8606      8605      8608
      8607      8605      8608      8608      8611      8612      8608      8611      8613
      8608      8611      8614      8609      8608      8610      8609      8608      8611
      8610      8608      8611      8611      8614      8615      8611      8614      8616
      8611      8614      8617      8612      8611      8613      8612      8611      8614
      8613      8611      8614      8614      8617      8618      8614      8617      8619
      8614      8617      8620      8615      8614      8616      8615      8614      8617
      8616      8614      8617      8617      8620      8621      8617      8620      8622
      8617      8620      8623      8618      8617      8619      8618      8617      8620
      8619      8617      8620      8620      8623      8624      8620      8623      8625
      8620      8623      8626      8621      8620      8622      8621      8620      8623
      8622      8620      8623      8623      8626      8627      8623      8626      8628
      8623      8626      8629      8624      8623      8625      8624      8623      8626
      8625      8623      8626      8626      8629      8630      8626      8629      8631
      8626      8629      8632      8627      8626      8628      8627      8626      8629
      8628      8626      8629      8629      8632      8633      8629      8632      8634
      8629      8632      8635      8630      8629      8631      8630      8629      8632
      8631      8629      8632      8632      8635      8636      8632      8635      8637
      8632      8635      8638      8633      8632      8634      8633      8632      8635
      8634      8632      8635      8635      8638      8639      8635      8638      8640
      8635      8638      8641      8636      8635      8637      8636      8635      8638
      8637      8635      8638      8638      8641      8642      8638      8641      8643
      8638      8641      8644      8639      8638      8640      8639      8638      8641
      8640      8638      8641      8642      8641      8643      8642      8641      8644
      8643      8641      8644      8645      8646      8647      8645      8646      8648
      8645      8646      8661      8645      8649      8650      8645      8649      8651
      8645      8649      8652      8645      8653      8654      8645      8653      8655
      8645      8653      8656      8645      8657      8658      8645      8657      8659
      8645      8657      8660      8646      8645      8649      8646      8645      8653
      8646      8645      8657      8646      8661      8662      8646      8661      8663
      8646      8661      8667      8647      8646      8648      8647      8646      8661
      8648      8646      8661      8649      8645      8653      8649      8645      8657
      8650      8649      8651      8650      8649      8652      8651      8649      8652
      8653      8645      8657      8654      8653      8655      8654      8653      8656
      8655      8653      8656      8658      8657      8659      8658      8657      8660
      8659      8657      8660      8661      8667      8664      8662      8661      8663
      8662      8661      8667      8663      8661      8667      8664      8668      8669
      8665      8664      8666      8665      8664      8667      8665      8664      8668
      8666      8664      8667      8666      8664      8668      8667      8664      8668
      8668      8669      8670      8668      8669      8671      8668      8669      8672
      8669      8672      8673      8669      8672      8674      8669      8672      8680
      8670      8669      8671      8670      8669      8672      8671      8669      8672
      8672      8674      8675      8672      8680      8681      8672      8680      8682
      8672      8680      8683      8673      8672      8674      8673      8672      8680
      8674      8672      8680      8674      8675      8676      8674      8675      8677
      8675      8677      8678      8675      8677      8679      8675      8677      8689
      8676      8675      8677      8677      8689      8690      8677      8689      8691
      8677      8689      8692      8678      8677      8679      8678      8677      8689
      8679      8677      8689      8680      8683      8684      8681      8680      8682
      8681      8680      8683      8682      8680      8683      8683      8684      8685
      8683      8684      8686      8684      8686      8687      8684      8686      8688
      8684      8686      8736      8685      8684      8686      8686      8736      8737
      8686      8736      8738      8686      8736      8739      8687      8686      8688
      8687      8686      8736      8688      8686      8736      8689      8692      8693
      8689      8692      8694      8689      8692      8695      8690      8689      8691
      8690      8689      8692      8691      8689      8692      8692      8695      8696
      8692      8695      8697      8692      8695      8698      8693      8692      8694
      8693      8692      8695      8694      8692      8695      8695      8698      8699
      8695      8698      8700      8695      8698      8701      8696      8695      8697
      8696      8695      8698      8697      8695      8698      8698      8701      8702
      8698      8701      8703      8698      8701      8704      8699      8698      8700
      8699      8698      8701      8700      8698      8701      8701      8704      8705
      8701      8704      8706      8701      8704      8707      8702      8701      8703
      8702      8701      8704      8703      8701      8704      8704      8707      8708
      8704      8707      8709      8705      8704      8706      8705      8704      8707
      8706      8704      8707      8707      8709      8710      8707      8709      8711
      8708      8707      8709      8709      8711      8712      8709      8711      8713
      8709      8711      8714      8710      8709      8711      8711      8714      8715
      8711      8714      8716      8711      8714      8717      8712      8711      8713
      8712      8711      8714      8713      8711      8714      8714      8717      8718
      8714      8717      8719      8714      8717      8720      8715      8714      8716
      8715      8714      8717      8716      8714      8717      8717      8720      8721
      8717      8720      8722      8717      8720      8723      8718      8717      8719
      8718      8717      8720      8719      8717      8720      8720      8723      8724
      8720      8723      8725      8720      8723      8726      8721      8720      8722
      8721      8720      8723      8722      8720      8723      8723      8726      8727
      8723      8726      8728      8723      8726      8729      8724      8723      8725
      8724      8723      8726      8725      8723      8726      8726      8729      8730
      8726      8729      8731      8726      8729      8732      8727      8726      8728
      8727      8726      8729      8728      8726      8729      8729      8732      8733
      8729      8732      8734      8729      8732      8735      8730      8729      8731
      8730      8729      8732      8731      8729      8732      8733      8732      8734
      8733      8732      8735      8734      8732      8735      8736      8739      8740
      8736      8739      8741      8736      8739      8742      8737      8736      8738
      8737      8736      8739      8738      8736      8739      8739      8742      8743
      8739      8742      8744      8739      8742      8745      8740      8739      8741
      8740      8739      8742      8741      8739      8742      8742      8745      8746
      8742      8745      8747      8742      8745      8748      8743      8742      8744
      8743      8742      8745      8744      8742      8745      8745      8748      8749
      8745      8748      8750      8745      8748      8751      8746      8745      8747
      8746      8745      8748      8747      8745      8748      8748      8751      8752
      8748      8751      8753      8748      8751      8754      8749      8748      8750
      8749      8748      8751      8750      8748      8751      8751      8754      8755
      8751      8754      8756      8751      8754      8757      8752      8751      8753
      8752      8751      8754      8753      8751      8754      8754      8757      8758
      8754      8757      8759      8754      8757      8760      8755      8754      8756
      8755      8754      8757      8756      8754      8757      8757      8760      8761
      8757      8760      8762      8757      8760      8763      8758      8757      8759
      8758      8757      8760      8759      8757      8760      8760      8763      8764
      8760      8763      8765      8760      8763      8766      8761      8760      8762
      8761      8760      8763      8762      8760      8763      8763      8766      8767
      8763      8766      8768      8763      8766      8769      8764      8763      8765
      8764      8763      8766      8765      8763      8766      8766      8769      8770
      8766      8769      8771      8766      8769      8772      8767      8766      8768
      8767      8766      8769      8768      8766      8769      8769      8772      8773
      8769      8772      8774      8769      8772      8775      8770      8769      8771
      8770      8769      8772      8771      8769      8772      8772      8775      8776
      8772      8775      8777      8772      8775      8778      8773      8772      8774
      8773      8772      8775      8774      8772      8775      8776      8775      8777
      8776      8775      8778      8777      8775      8778      8779      8780      8781
      8779      8780      8782      8779      8780      8795      8779      8783      8784
      8779      8783      8785      8779      8783      8786      8779      8787      8788
      8779      8787      8789      8779      8787      8790      8779      8791      8792
      8779      8791      8793      8779      8791      8794      8780      8779      8783
      8780      8779      8787      8780      8779      8791      8780      8795      8796
      8780      8795      8797      8780      8795      8801      8781      8780      8782
      8781      8780      8795      8782      8780      8795      8783      8779      8787
      8783      8779      8791      8784      8783      8785      8784      8783      8786
      8785      8783      8786      8787      8779      8791      8788      8787      8789
      8788      8787      8790      8789      8787      8790      8792      8791      8793
      8792      8791      8794      8793      8791      8794      8795      8801      8798
      8796      8795      8797      8796      8795      8801      8797      8795      8801
      8798      8802      8803      8799      8798      8800      8799      8798      8801
      8799      8798      8802      8800      8798      8801      8800      8798      8802
      8801      8798      8802      8802      8803      8804      8802      8803      8805
      8802      8803      8806      8803      8806      8807      8803      8806      8808
      8803      8806      8814      8804      8803      8805      8804      8803      8806
      8805      8803      8806      8806      8808      8809      8806      8814      8815
      8806      8814      8816      8806      8814      8817      8807      8806      8808
      8807      8806      8814      8808      8806      8814      8808      8809      8810
      8808      8809      8811      8809      8811      8812      8809      8811      8813
      8809      8811      8823      8810      8809      8811      8811      8823      8824
      8811      8823      8825      8811      8823      8826      8812      8811      8813
      8812      8811      8823      8813      8811      8823      8814      8817      8818
      8815      8814      8816      8815      8814      8817      8816      8814      8817
      8817      8818      8819      8817      8818      8820      8818      8820      8821
      8818      8820      8822      8818      8820      8870      8819      8818      8820
      8820      8870      8871      8820      8870      8872      8820      8870      8873
      8821      8820      8822      8821      8820      8870      8822      8820      8870
      8823      8826      8827      8823      8826      8828      8823      8826      8829
      8824      8823      8825      8824      8823      8826      8825      8823      8826
      8826      8829      8830      8826      8829      8831      8826      8829      8832
      8827      8826      8828      8827      8826      8829      8828      8826      8829
      8829      8832      8833      8829      8832      8834      8829      8832      8835
      8830      8829      8831      8830      8829      8832      8831      8829      8832
      8832      8835      8836      8832      8835      8837      8832      8835      8838
      8833      8832      8834      8833      8832      8835      8834      8832      8835
      8835      8838      8839      8835      8838      8840      8835      8838      8841
      8836      8835      8837      8836      8835      8838      8837      8835      8838
      8838      8841      8842      8838      8841      8843      8839      8838      8840
      8839      8838      8841      8840      8838      8841      8841      8843      8844
      8841      8843      8845      8842      8841      8843      8843      8845      8846
      8843      8845      8847      8843      8845      8848      8844      8843      8845
      8845      8848      8849      8845      8848      8850      8845      8848      8851
      8846      8845      8847      8846      8845      8848      8847      8845      8848
      8848      8851      8852      8848      8851      8853      8848      8851      8854
      8849      8848      8850      8849      8848      8851      8850      8848      8851
      8851      8854      8855      8851      8854      8856      8851      8854      8857
      8852      8851      8853      8852      8851      8854      8853      8851      8854
      8854      8857      8858      8854      8857      8859      8854      8857      8860
      8855      8854      8856      8855      8854      8857      8856      8854      8857
      8857      8860      8861      8857      8860      8862      8857      8860      8863
      8858      8857      8859      8858      8857      8860      8859      8857      8860
      8860      8863      8864      8860      8863      8865      8860      8863      8866
      8861      8860      8862      8861      8860      8863      8862      8860      8863
      8863      8866      8867      8863      8866      8868      8863      8866      8869
      8864      8863      8865      8864      8863      8866      8865      8863      8866
      8867      8866      8868      8867      8866      8869      8868      8866      8869
      8870      8873      8874      8870      8873      8875      8870      8873      8876
      8871      8870      8872      8871      8870      8873      8872      8870      8873
      8873      8876      8877      8873      8876      8878      8873      8876      8879
      8874      8873      8875      8874      8873      8876      8875      8873      8876
      8876      8879      8880      8876      8879      8881      8876      8879      8882
      8877      8876      8878      8877      8876      8879      8878      8876      8879
      8879      8882      8883      8879      8882      8884      8879      8882      8885
      8880      8879      8881      8880      8879      8882      8881      8879      8882
      8882      8885      8886      8882      8885      8887      8882      8885      8888
      8883      8882      8884      8883      8882      8885      8884      8882      8885
      8885      8888      8889      8885      8888      8890      8885      8888      8891
      8886      8885      8887      8886      8885      8888      8887      8885      8888
      8888      8891      8892      8888      8891      8893      8888      8891      8894
      8889      8888      8890      8889      8888      8891      8890      8888      8891
      8891      8894      8895      8891      8894      8896      8891      8894      8897
      8892      8891      8893      8892      8891      8894      8893      8891      8894
      8894      8897      8898      8894      8897      8899      8894      8897      8900
      8895      8894      8896      8895      8894      8897      8896      8894      8897
      8897      8900      8901      8897      8900      8902      8897      8900      8903
      8898      8897      8899      8898      8897      8900      8899      8897      8900
      8900      8903      8904      8900      8903      8905      8900      8903      8906
      8901      8900      8902      8901      8900      8903      8902      8900      8903
      8903      8906      8907      8903      8906      8908      8903      8906      8909
      8904      8903      8905      8904      8903      8906      8905      8903      8906
      8906      8909      8910      8906      8909      8911      8906      8909      8912
      8907      8906      8908      8907      8906      8909      8908      8906      8909
      8910      8909      8911      8910      8909      8912      8911      8909      8912
      8913      8914      8915      8913      8914      8916      8913      8914      8929
      8913      8917      8918      8913      8917      8919      8913      8917      8920
      8913      8921      8922      8913      8921      8923      8913      8921      8924
      8913      8925      8926      8913      8925      8927      8913      8925      8928
      8914      8913      8917      8914      8913      8921      8914      8913      8925
      8914      8929      8930      8914      8929      8931      8914      8929      8935
      8915      8914      8916      8915      8914      8929      8916      8914      8929
      8917      8913      8921      8917      8913      8925      8918      8917      8919
      8918      8917      8920      8919      8917      8920      8921      8913      8925
      8922      8921      8923      8922      8921      8924      8923      8921      8924
      8926      8925      8927      8926      8925      8928      8927      8925      8928
      8929      8935      8932      8930      8929      8931      8930      8929      8935
      8931      8929      8935      8932      8936      8937      8933      8932      8934
      8933      8932      8935      8933      8932      8936      8934      8932      8935
      8934      8932      8936      8935      8932      8936      8936      8937      8938
      8936      8937      8939      8936      8937      8940      8937      8940      8941
      8937      8940      8942      8937      8940      8948      8938      8937      8939
      8938      8937      8940      8939      8937      8940      8940      8942      8943
      8940      8948      8949      8940      8948      8950      8940      8948      8951
      8941      8940      8942      8941      8940      8948      8942      8940      8948
      8942      8943      8944      8942      8943      8945      8943      8945      8946
      8943      8945      8947      8943      8945      8957      8944      8943      8945
      8945      8957      8958      8945      8957      8959      8945      8957      8960
      8946      8945      8947      8946      8945      8957      8947      8945      8957
      8948      8951      8952      8949      8948      8950      8949      8948      8951
      8950      8948      8951      8951      8952      8953      8951      8952      8954
      8952      8954      8955      8952      8954      8956      8952      8954      9004
      8953      8952      8954      8954      9004      9005      8954      9004      9006
      8954      9004      9007      8955      8954      8956      8955      8954      9004
      8956      8954      9004      8957      8960      8961      8957      8960      8962
      8957      8960      8963      8958      8957      8959      8958      8957      8960
      8959      8957      8960      8960      8963      8964      8960      8963      8965
      8960      8963      8966      8961      8960      8962      8961      8960      8963
      8962      8960      8963      8963      8966      8967      8963      8966      8968
      8963      8966      8969      8964      8963      8965      8964      8963      8966
      8965      8963      8966      8966      8969      8970      8966      8969      8971
      8966      8969      8972      8967      8966      8968      8967      8966      8969
      8968      8966      8969      8969      8972      8973      8969      8972      8974
      8969      8972      8975      8970      8969      8971      8970      8969      8972
      8971      8969      8972      8972      8975      8976      8972      8975      8977
      8973      8972      8974      8973      8972      8975      8974      8972      8975
      8975      8977      8978      8975      8977      8979      8976      8975      8977
      8977      8979      8980      8977      8979      8981      8977      8979      8982
      8978      8977      8979      8979      8982      8983      8979      8982      8984
      8979      8982      8985      8980      8979      8981      8980      8979      8982
      8981      8979      8982      8982      8985      8986      8982      8985      8987
      8982      8985      8988      8983      8982      8984      8983      8982      8985
      8984      8982      8985      8985      8988      8989      8985      8988      8990
      8985      8988      8991      8986      8985      8987      8986      8985      8988
      8987      8985      8988      8988      8991      8992      8988      8991      8993
      8988      8991      8994      8989      8988      8990      8989      8988      8991
      8990      8988      8991      8991      8994      8995      8991      8994      8996
      8991      8994      8997      8992      8991      8993      8992      8991      8994
      8993      8991      8994      8994      8997      8998      8994      8997      8999
      8994      8997      9000      8995      8994      8996      8995      8994      8997
      8996      8994      8997      8997      9000      9001      8997      9000      9002
      8997      9000      9003      8998      8997      8999      8998      8997      9000
      8999      8997      9000      9001      9000      9002      9001      9000      9003
      9002      9000      9003      9004      9007      9008      9004      9007      9009
      9004      9007      9010      9005      9004      9006      9005      9004      9007
      9006      9004      9007      9007      9010      9011      9007      9010      9012
      9007      9010      9013      9008      9007      9009      9008      9007      9010
      9009      9007      9010      9010      9013      9014      9010      9013      9015
      9010      9013      9016      9011      9010      9012      9011      9010      9013
      9012      9010      9013      9013      9016      9017      9013      9016      9018
      9013      9016      9019      9014      9013      9015      9014      9013      9016
      9015      9013      9016      9016      9019      9020      9016      9019      9021
      9016      9019      9022      9017      9016      9018      9017      9016      9019
      9018      9016      9019      9019      9022      9023      9019      9022      9024
      9019      9022      9025      9020      9019      9021      9020      9019      9022
      9021      9019      9022      9022      9025      9026      9022      9025      9027
      9022      9025      9028      9023      9022      9024      9023      9022      9025
      9024      9022      9025      9025      9028      9029      9025      9028      9030
      9025      9028      9031      9026      9025      9027      9026      9025      9028
      9027      9025      9028      9028      9031      9032      9028      9031      9033
      9028      9031      9034      9029      9028      9030      9029      9028      9031
      9030      9028      9031      9031      9034      9035      9031      9034      9036
      9031      9034      9037      9032      9031      9033      9032      9031      9034
      9033      9031      9034      9034      9037      9038      9034      9037      9039
      9034      9037      9040      9035      9034      9036      9035      9034      9037
      9036      9034      9037      9037      9040      9041      9037      9040      9042
      9037      9040      9043      9038      9037      9039      9038      9037      9040
      9039      9037      9040      9040      9043      9044      9040      9043      9045
      9040      9043      9046      9041      9040      9042      9041      9040      9043
      9042      9040      9043      9044      9043      9045      9044      9043      9046
      9045      9043      9046      9047      9048      9049      9047      9048      9050
      9047      9048      9063      9047      9051      9052      9047      9051      9053
      9047      9051      9054      9047      9055      9056      9047      9055      9057
      9047      9055      9058      9047      9059      9060      9047      9059      9061
      9047      9059      9062      9048      9047      9051      9048      9047      9055
      9048      9047      9059      9048      9063      9064      9048      9063      9065
      9048      9063      9069      9049      9048      9050      9049      9048      9063
      9050      9048      9063      9051      9047      9055      9051      9047      9059
      9052      9051      9053      9052      9051      9054      9053      9051      9054
      9055      9047      9059      9056      9055      9057      9056      9055      9058
      9057      9055      9058      9060      9059      9061      9060      9059      9062
      9061      9059      9062      9063      9069      9066      9064      9063      9065
      9064      9063      9069      9065      9063      9069      9066      9070      9071
      9067      9066      9068      9067      9066      9069      9067      9066      9070
      9068      9066      9069      9068      9066      9070      9069      9066      9070
      9070      9071      9072      9070      9071      9073      9070      9071      9074
      9071      9074      9075      9071      9074      9076      9071      9074      9082
      9072      9071      9073      9072      9071      9074      9073      9071      9074
      9074      9076      9077      9074      9082      9083      9074      9082      9084
      9074      9082      9085      9075      9074      9076      9075      9074      9082
      9076      9074      9082      9076      9077      9078      9076      9077      9079
      9077      9079      9080      9077      9079      9081      9077      9079      9091
      9078      9077      9079      9079      9091      9092      9079      9091      9093
      9079      9091      9094      9080      9079      9081      9080      9079      9091
      9081      9079      9091      9082      9085      9086      9083      9082      9084
      9083      9082      9085      9084      9082      9085      9085      9086      9087
      9085      9086      9088      9086      9088      9089      9086      9088      9090
      9086      9088      9138      9087      9086      9088      9088      9138      9139
      9088      9138      9140      9088      9138      9141      9089      9088      9090
      9089      9088      9138      9090      9088      9138      9091      9094      9095
      9091      9094      9096      9091      9094      9097      9092      9091      9093
      9092      9091      9094      9093      9091      9094      9094      9097      9098
      9094      9097      9099      9094      9097      9100      9095      9094      9096
      9095      9094      9097      9096      9094      9097      9097      9100      9101
      9097      9100      9102      9097      9100      9103      9098      9097      9099
      9098      9097      9100      9099      9097      9100      9100      9103      9104
      9100      9103      9105      9100      9103      9106      9101      9100      9102
      9101      9100      9103      9102      9100      9103      9103      9106      9107
      9103      9106      9108      9103      9106      9109      9104      9103      9105
      9104      9103      9106      9105      9103      9106      9106      9109      9110
      9106      9109      9111      9107      9106      9108      9107      9106      9109
      9108      9106      9109      9109      9111      9112      9109      9111      9113
      9110      9109      9111      9111      9113      9114      9111      9113      9115
      9111      9113      9116      9112      9111      9113      9113      9116      9117
      9113      9116      9118      9113      9116      9119      9114      9113      9115
      9114      9113      9116      9115      9113      9116      9116      9119      9120
      9116      9119      9121      9116      9119      9122      9117      9116      9118
      9117      9116      9119      9118      9116      9119      9119      9122      9123
      9119      9122      9124      9119      9122      9125      9120      9119      9121
      9120      9119      9122      9121      9119      9122      9122      9125      9126
      9122      9125      9127      9122      9125      9128      9123      9122      9124
      9123      9122      9125      9124      9122      9125      9125      9128      9129
      9125      9128      9130      9125      9128      9131      9126      9125      9127
      9126      9125      9128      9127      9125      9128      9128      9131      9132
      9128      9131      9133      9128      9131      9134      9129      9128      9130
      9129      9128      9131      9130      9128      9131      9131      9134      9135
      9131      9134      9136      9131      9134      9137      9132      9131      9133
      9132      9131      9134      9133      9131      9134      9135      9134      9136
      9135      9134      9137      9136      9134      9137      9138      9141      9142
      9138      9141      9143      9138      9141      9144      9139      9138      9140
      9139      9138      9141      9140      9138      9141      9141      9144      9145
      9141      9144      9146      9141      9144      9147      9142      9141      9143
      9142      9141      9144      9143      9141      9144      9144      9147      9148
      9144      9147      9149      9144      9147      9150      9145      9144      9146
      9145      9144      9147      9146      9144      9147      9147      9150      9151
      9147      9150      9152      9147      9150      9153      9148      9147      9149
      9148      9147      9150      9149      9147      9150      9150      9153      9154
      9150      9153      9155      9150      9153      9156      9151      9150      9152
      9151      9150      9153      9152      9150      9153      9153      9156      9157
      9153      9156      9158      9153      9156      9159      9154      9153      9155
      9154      9153      9156      9155      9153      9156      9156      9159      9160
      9156      9159      9161      9156      9159      9162      9157      9156      9158
      9157      9156      9159      9158      9156      9159      9159      9162      9163
      9159      9162      9164      9159      9162      9165      9160      9159      9161
      9160      9159      9162      9161      9159      9162      9162      9165      9166
      9162      9165      9167      9162      9165      9168      9163      9162      9164
      9163      9162      9165      9164      9162      9165      9165      9168      9169
      9165      9168      9170      9165      9168      9171      9166      9165      9167
      9166      9165      9168      9167      9165      9168      9168      9171      9172
      9168      9171      9173      9168      9171      9174      9169      9168      9170
      9169      9168      9171      9170      9168      9171      9171      9174      9175
      9171      9174      9176      9171      9174      9177      9172      9171      9173
      9172      9171      9174      9173      9171      9174      9174      9177      9178
      9174      9177      9179      9174      9177      9180      9175      9174      9176
      9175      9174      9177      9176      9174      9177      9178      9177      9179
      9178      9177      9180      9179      9177      9180      9181      9182      9183
      9181      9182      9184      9181      9182      9197      9181      9185      9186
      9181      9185      9187      9181      9185      9188      9181      9189      9190
      9181      9189      9191      9181      9189      9192      9181      9193      9194
      9181      9193      9195      9181      9193      9196      9182      9181      9185
      9182      9181      9189      9182      9181      9193      9182      9197      9198
      9182      9197      9199      9182      9197      9203      9183      9182      9184
      9183      9182      9197      9184      9182      9197      9185      9181      9189
      9185      9181      9193      9186      9185      9187      9186      9185      9188
      9187      9185      9188      9189      9181      9193      9190      9189      9191
      9190      9189      9192      9191      9189      9192      9194      9193      9195
      9194      9193      9196      9195      9193      9196      9197      9203      9200
      9198      9197      9199      9198      9197      9203      9199      9197      9203
      9200      9204      9205      9201      9200      9202      9201      9200      9203
      9201      9200      9204      9202      9200      9203      9202      9200      9204
      9203      9200      9204      9204      9205      9206      9204      9205      9207
      9204      9205      9208      9205      9208      9209      9205      9208      9210
      9205      9208      9216      9206      9205      9207      9206      9205      9208
      9207      9205      9208      9208      9210      9211      9208      9216      9217
      9208      9216      9218      9208      9216      9219      9209      9208      9210
      9209      9208      9216      9210      9208      9216      9210      9211      9212
      9210      9211      9213      9211      9213      9214      9211      9213      9215
      9211      9213      9225      9212      9211      9213      9213      9225      9226
      9213      9225      9227      9213      9225      9228      9214      9213      9215
      9214      9213      9225      9215      9213      9225      9216      9219      9220
      9217      9216      9218      9217      9216      9219      9218      9216      9219
      9219      9220      9221      9219      9220      9222      9220      9222      9223
      9220      9222      9224      9220      9222      9272      9221      9220      9222
      9222      9272      9273      9222      9272      9274      9222      9272      9275
      9223      9222      9224      9223      9222      9272      9224      9222      9272
      9225      9228      9229      9225      9228      9230      9225      9228      9231
      9226      9225      9227      9226      9225      9228      9227      9225      9228
      9228      9231      9232      9228      9231      9233      9228      9231      9234
      9229      9228      9230      9229      9228      9231      9230      9228      9231
      9231      9234      9235      9231      9234      9236      9231      9234      9237
      9232      9231      9233      9232      9231      9234      9233      9231      9234
      9234      9237      9238      9234      9237      9239      9234      9237      9240
      9235      9234      9236      9235      9234      9237      9236      9234      9237
      9237      9240      9241      9237      9240      9242      9237      9240      9243
      9238      9237      9239      9238      9237      9240      9239      9237      9240
      9240      9243      9244      9240      9243      9245      9241      9240      9242
      9241      9240      9243      9242      9240      9243      9243      9245      9246
      9243      9245      9247      9244      9243      9245      9245      9247      9248
      9245      9247      9249      9245      9247      9250      9246      9245      9247
      9247      9250      9251      9247      9250      9252      9247      9250      9253
      9248      9247      9249      9248      9247      9250      9249      9247      9250
      9250      9253      9254      9250      9253      9255      9250      9253      9256
      9251      9250      9252      9251      9250      9253      9252      9250      9253
      9253      9256      9257      9253      9256      9258      9253      9256      9259
      9254      9253      9255      9254      9253      9256      9255      9253      9256
      9256      9259      9260      9256      9259      9261      9256      9259      9262
      9257      9256      9258      9257      9256      9259      9258      9256      9259
      9259      9262      9263      9259      9262      9264      9259      9262      9265
      9260      9259      9261      9260      9259      9262      9261      9259      9262
      9262      9265      9266      9262      9265      9267      9262      9265      9268
      9263      9262      9264      9263      9262      9265      9264      9262      9265
      9265      9268      9269      9265      9268      9270      9265      9268      9271
      9266      9265      9267      9266      9265      9268      9267      9265      9268
      9269      9268      9270      9269      9268      9271      9270      9268      9271
      9272      9275      9276      9272      9275      9277      9272      9275      9278
      9273      9272      9274      9273      9272      9275      9274      9272      9275
      9275      9278      9279      9275      9278      9280      9275      9278      9281
      9276      9275      9277      9276      9275      9278      9277      9275      9278
      9278      9281      9282      9278      9281      9283      9278      9281      9284
      9279      9278      9280      9279      9278      9281      9280      9278      9281
      9281      9284      9285      9281      9284      9286      9281      9284      9287
      9282      9281      9283      9282      9281      9284      9283      9281      9284
      9284      9287      9288      9284      9287      9289      9284      9287      9290
      9285      9284      9286      9285      9284      9287      9286      9284      9287
      9287      9290      9291      9287      9290      9292      9287      9290      9293
      9288      9287      9289      9288      9287      9290      9289      9287      9290
      9290      9293      9294      9290      9293      9295      9290      9293      9296
      9291      9290      9292      9291      9290      9293      9292      9290      9293
      9293      9296      9297      9293      9296      9298      9293      9296      9299
      9294      9293      9295      9294      9293      9296      9295      9293      9296
      9296      9299      9300      9296      9299      9301      9296      9299      9302
      9297      9296      9298      9297      9296      9299      9298      9296      9299
      9299      9302      9303      9299      9302      9304      9299      9302      9305
      9300      9299      9301      9300      9299      9302      9301      9299      9302
      9302      9305      9306      9302      9305      9307      9302      9305      9308
      9303      9302      9304      9303      9302      9305      9304      9302      9305
      9305      9308      9309      9305      9308      9310      9305      9308      9311
      9306      9305      9307      9306      9305      9308      9307      9305      9308
      9308      9311      9312      9308      9311      9313      9308      9311      9314
      9309      9308      9310      9309      9308      9311      9310      9308      9311
      9312      9311      9313      9312      9311      9314      9313      9311      9314
      9315      9316      9317      9315      9316      9318      9315      9316      9331
      9315      9319      9320      9315      9319      9321      9315      9319      9322
      9315      9323      9324      9315      9323      9325      9315      9323      9326
      9315      9327      9328      9315      9327      9329      9315      9327      9330
      9316      9315      9319      9316      9315      9323      9316      9315      9327
      9316      9331      9332      9316      9331      9333      9316      9331      9337
      9317      9316      9318      9317      9316      9331      9318      9316      9331
      9319      9315      9323      9319      9315      9327      9320      9319      9321
      9320      9319      9322      9321      9319      9322      9323      9315      9327
      9324      9323      9325      9324      9323      9326      9325      9323      9326
      9328      9327      9329      9328      9327      9330      9329      9327      9330
      9331      9337      9334      9332      9331      9333      9332      9331      9337
      9333      9331      9337      9334      9338      9339      9335      9334      9336
      9335      9334      9337      9335      9334      9338      9336      9334      9337
      9336      9334      9338      9337      9334      9338      9338      9339      9340
      9338      9339      9341      9338      9339      9342      9339      9342      9343
      9339      9342      9344      9339      9342      9350      9340      9339      9341
      9340      9339      9342      9341      9339      9342      9342      9344      9345
      9342      9350      9351      9342      9350      9352      9342      9350      9353
      9343      9342      9344      9343      9342      9350      9344      9342      9350
      9344      9345      9346      9344      9345      9347      9345      9347      9348
      9345      9347      9349      9345      9347      9359      9346      9345      9347
      9347      9359      9360      9347      9359      9361      9347      9359      9362
      9348      9347      9349      9348      9347      9359      9349      9347      9359
      9350      9353      9354      9351      9350      9352      9351      9350      9353
      9352      9350      9353      9353      9354      9355      9353      9354      9356
      9354      9356      9357      9354      9356      9358      9354      9356      9406
      9355      9354      9356      9356      9406      9407      9356      9406      9408
      9356      9406      9409      9357      9356      9358      9357      9356      9406
      9358      9356      9406      9359      9362      9363      9359      9362      9364
      9359      9362      9365      9360      9359      9361      9360      9359      9362
      9361      9359      9362      9362      9365      9366      9362      9365      9367
      9362      9365      9368      9363      9362      9364      9363      9362      9365
      9364      9362      9365      9365      9368      9369      9365      9368      9370
      9365      9368      9371      9366      9365      9367      9366      9365      9368
      9367      9365      9368      9368      9371      9372      9368      9371      9373
      9368      9371      9374      9369      9368      9370      9369      9368      9371
      9370      9368      9371      9371      9374      9375      9371      9374      9376
      9371      9374      9377      9372      9371      9373      9372      9371      9374
      9373      9371      9374      9374      9377      9378      9374      9377      9379
      9375      9374      9376      9375      9374      9377      9376      9374      9377
      9377      9379      9380      9377      9379      9381      9378      9377      9379
      9379      9381      9382      9379      9381      9383      9379      9381      9384
      9380      9379      9381      9381      9384      9385      9381      9384      9386
      9381      9384      9387      9382      9381      9383      9382      9381      9384
      9383      9381      9384      9384      9387      9388      9384      9387      9389
      9384      9387      9390      9385      9384      9386      9385      9384      9387
      9386      9384      9387      9387      9390      9391      9387      9390      9392
      9387      9390      9393      9388      9387      9389      9388      9387      9390
      9389      9387      9390      9390      9393      9394      9390      9393      9395
      9390      9393      9396      9391      9390      9392      9391      9390      9393
      9392      9390      9393      9393      9396      9397      9393      9396      9398
      9393      9396      9399      9394      9393      9395      9394      9393      9396
      9395      9393      9396      9396      9399      9400      9396      9399      9401
      9396      9399      9402      9397      9396      9398      9397      9396      9399
      9398      9396      9399      9399      9402      9403      9399      9402      9404
      9399      9402      9405      9400      9399      9401      9400      9399      9402
      9401      9399      9402      9403      9402      9404      9403      9402      9405
      9404      9402      9405      9406      9409      9410      9406      9409      9411
      9406      9409      9412      9407      9406      9408      9407      9406      9409
      9408      9406      9409      9409      9412      9413      9409      9412      9414
      9409      9412      9415      9410      9409      9411      9410      9409      9412
      9411      9409      9412      9412      9415      9416      9412      9415      9417
      9412      9415      9418      9413      9412      9414      9413      9412      9415
      9414      9412      9415      9415      9418      9419      9415      9418      9420
      9415      9418      9421      9416      9415      9417      9416      9415      9418
      9417      9415      9418      9418      9421      9422      9418      9421      9423
      9418      9421      9424      9419      9418      9420      9419      9418      9421
      9420      9418      9421      9421      9424      9425      9421      9424      9426
      9421      9424      9427      9422      9421      9423      9422      9421      9424
      9423      9421      9424      9424      9427      9428      9424      9427      9429
      9424      9427      9430      9425      9424      9426      9425      9424      9427
      9426      9424      9427      9427      9430      9431      9427      9430      9432
      9427      9430      9433      9428      9427      9429      9428      9427      9430
      9429      9427      9430      9430      9433      9434      9430      9433      9435
      9430      9433      9436      9431      9430      9432      9431      9430      9433
      9432      9430      9433      9433      9436      9437      9433      9436      9438
      9433      9436      9439      9434      9433      9435      9434      9433      9436
      9435      9433      9436      9436      9439      9440      9436      9439      9441
      9436      9439      9442      9437      9436      9438      9437      9436      9439
      9438      9436      9439      9439      9442      9443      9439      9442      9444
      9439      9442      9445      9440      9439      9441      9440      9439      9442
      9441      9439      9442      9442      9445      9446      9442      9445      9447
      9442      9445      9448      9443      9442      9444      9443      9442      9445
      9444      9442      9445      9446      9445      9447      9446      9445      9448
      9447      9445      9448      9449      9450      9451      9449      9450      9452
      9449      9450      9465      9449      9453      9454      9449      9453      9455
      9449      9453      9456      9449      9457      9458      9449      9457      9459
      9449      9457      9460      9449      9461      9462      9449      9461      9463
      9449      9461      9464      9450      9449      9453      9450      9449      9457
      9450      9449      9461      9450      9465      9466      9450      9465      9467
      9450      9465      9471      9451      9450      9452      9451      9450      9465
      9452      9450      9465      9453      9449      9457      9453      9449      9461
      9454      9453      9455      9454      9453      9456      9455      9453      9456
      9457      9449      9461      9458      9457      9459      9458      9457      9460
      9459      9457      9460      9462      9461      9463      9462      9461      9464
      9463      9461      9464      9465      9471      9468      9466      9465      9467
      9466      9465      9471      9467      9465      9471      9468      9472      9473
      9469      9468      9470      9469      9468      9471      9469      9468      9472
      9470      9468      9471      9470      9468      9472      9471      9468      9472
      9472      9473      9474      9472      9473      9475      9472      9473      9476
      9473      9476      9477      9473      9476      9478      9473      9476      9484
      9474      9473      9475      9474      9473      9476      9475      9473      9476
      9476      9478      9479      9476      9484      9485      9476      9484      9486
      9476      9484      9487      9477      9476      9478      9477      9476      9484
      9478      9476      9484      9478      9479      9480      9478      9479      9481
      9479      9481      9482      9479      9481      9483      9479      9481      9493
      9480      9479      9481      9481      9493      9494      9481      9493      9495
      9481      9493      9496      9482      9481      9483      9482      9481      9493
      9483      9481      9493      9484      9487      9488      9485      9484      9486
      9485      9484      9487      9486      9484      9487      9487      9488      9489
      9487      9488      9490      9488      9490      9491      9488      9490      9492
      9488      9490      9540      9489      9488      9490      9490      9540      9541
      9490      9540      9542      9490      9540      9543      9491      9490      9492
      9491      9490      9540      9492      9490      9540      9493      9496      9497
      9493      9496      9498      9493      9496      9499      9494      9493      9495
      9494      9493      9496      9495      9493      9496      9496      9499      9500
      9496      9499      9501      9496      9499      9502      9497      9496      9498
      9497      9496      9499      9498      9496      9499      9499      9502      9503
      9499      9502      9504      9499      9502      9505      9500      9499      9501
      9500      9499      9502      9501      9499      9502      9502      9505      9506
      9502      9505      9507      9502      9505      9508      9503      9502      9504
      9503      9502      9505      9504      9502      9505      9505      9508      9509
      9505      9508      9510      9505      9508      9511      9506      9505      9507
      9506      9505      9508      9507      9505      9508      9508      9511      9512
      9508      9511      9513      9509      9508      9510      9509      9508      9511
      9510      9508      9511      9511      9513      9514      9511      9513      9515
      9512      9511      9513      9513      9515      9516      9513      9515      9517
      9513      9515      9518      9514      9513      9515      9515      9518      9519
      9515      9518      9520      9515      9518      9521      9516      9515      9517
      9516      9515      9518      9517      9515      9518      9518      9521      9522
      9518      9521      9523      9518      9521      9524      9519      9518      9520
      9519      9518      9521      9520      9518      9521      9521      9524      9525
      9521      9524      9526      9521      9524      9527      9522      9521      9523
      9522      9521      9524      9523      9521      9524      9524      9527      9528
      9524      9527      9529      9524      9527      9530      9525      9524      9526
      9525      9524      9527      9526      9524      9527      9527      9530      9531
      9527      9530      9532      9527      9530      9533      9528      9527      9529
      9528      9527      9530      9529      9527      9530      9530      9533      9534
      9530      9533      9535      9530      9533      9536      9531      9530      9532
      9531      9530      9533      9532      9530      9533      9533      9536      9537
      9533      9536      9538      9533      9536      9539      9534      9533      9535
      9534      9533      9536      9535      9533      9536      9537      9536      9538
      9537      9536      9539      9538      9536      9539      9540      9543      9544
      9540      9543      9545      9540      9543      9546      9541      9540      9542
      9541      9540      9543      9542      9540      9543      9543      9546      9547
      9543      9546      9548      9543      9546      9549      9544      9543      9545
      9544      9543      9546      9545      9543      9546      9546      9549      9550
      9546      9549      9551      9546      9549      9552      9547      9546      9548
      9547      9546      9549      9548      9546      9549      9549      9552      9553
      9549      9552      9554      9549      9552      9555      9550      9549      9551
      9550      9549      9552      9551      9549      9552      9552      9555      9556
      9552      9555      9557      9552      9555      9558      9553      9552      9554
      9553      9552      9555      9554      9552      9555      9555      9558      9559
      9555      9558      9560      9555      9558      9561      9556      9555      9557
      9556      9555      9558      9557      9555      9558      9558      9561      9562
      9558      9561      9563      9558      9561      9564      9559      9558      9560
      9559      9558      9561      9560      9558      9561      9561      9564      9565
      9561      9564      9566      9561      9564      9567      9562      9561      9563
      9562      9561      9564      9563      9561      9564      9564      9567      9568
      9564      9567      9569      9564      9567      9570      9565      9564      9566
      9565      9564      9567      9566      9564      9567      9567      9570      9571
      9567      9570      9572      9567      9570      9573      9568      9567      9569
      9568      9567      9570      9569      9567      9570      9570      9573      9574
      9570      9573      9575      9570      9573      9576      9571      9570      9572
      9571      9570      9573      9572      9570      9573      9573      9576      9577
      9573      9576      9578      9573      9576      9579      9574      9573      9575
      9574      9573      9576      9575      9573      9576      9576      9579      9580
      9576      9579      9581      9576      9579      9582      9577      9576      9578
      9577      9576      9579      9578      9576      9579      9580      9579      9581
      9580      9579      9582      9581      9579      9582      9583      9584      9585
      9583      9584      9586      9583      9584      9599      9583      9587      9588
      9583      9587      9589      9583      9587      9590      9583      9591      9592
      9583      9591      9593      9583      9591      9594      9583      9595      9596
      9583      9595      9597      9583      9595      9598      9584      9583      9587
      9584      9583      9591      9584      9583      9595      9584      9599      9600
      9584      9599      9601      9584      9599      9605      9585      9584      9586
      9585      9584      9599      9586      9584      9599      9587      9583      9591
      9587      9583      9595      9588      9587      9589      9588      9587      9590
      9589      9587      9590      9591      9583      9595      9592      9591      9593
      9592      9591      9594      9593      9591      9594      9596      9595      9597
      9596      9595      9598      9597      9595      9598      9599      9605      9602
      9600      9599      9601      9600      9599      9605      9601      9599      9605
      9602      9606      9607      9603      9602      9604      9603      9602      9605
      9603      9602      9606      9604      9602      9605      9604      9602      9606
      9605      9602      9606      9606      9607      9608      9606      9607      9609
      9606      9607      9610      9607      9610      9611      9607      9610      9612
      9607      9610      9618      9608      9607      9609      9608      9607      9610
      9609      9607      9610      9610      9612      9613      9610      9618      9619
      9610      9618      9620      9610      9618      9621      9611      9610      9612
      9611      9610      9618      9612      9610      9618      9612      9613      9614
      9612      9613      9615      9613      9615      9616      9613      9615      9617
      9613      9615      9627      9614      9613      9615      9615      9627      9628
      9615      9627      9629      9615      9627      9630      9616      9615      9617
      9616      9615      9627      9617      9615      9627      9618      9621      9622
      9619      9618      9620      9619      9618      9621      9620      9618      9621
      9621      9622      9623      9621      9622      9624      9622      9624      9625
      9622      9624      9626      9622      9624      9674      9623      9622      9624
      9624      9674      9675      9624      9674      9676      9624      9674      9677
      9625      9624      9626      9625      9624      9674      9626      9624      9674
      9627      9630      9631      9627      9630      9632      9627      9630      9633
      9628      9627      9629      9628      9627      9630      9629      9627      9630
      9630      9633      9634      9630      9633      9635      9630      9633      9636
      9631      9630      9632      9631      9630      9633      9632      9630      9633
      9633      9636      9637      9633      9636      9638      9633      9636      9639
      9634      9633      9635      9634      9633      9636      9635      9633      9636
      9636      9639      9640      9636      9639      9641      9636      9639      9642
      9637      9636      9638      9637      9636      9639      9638      9636      9639
      9639      9642      9643      9639      9642      9644      9639      9642      9645
      9640      9639      9641      9640      9639      9642      9641      9639      9642
      9642      9645      9646      9642      9645      9647      9643      9642      9644
      9643      9642      9645      9644      9642      9645      9645      9647      9648
      9645      9647      9649      9646      9645      9647      9647      9649      9650
      9647      9649      9651      9647      9649      9652      9648      9647      9649
      9649      9652      9653      9649      9652      9654      9649      9652      9655
      9650      9649      9651      9650      9649      9652      9651      9649      9652
      9652      9655      9656      9652      9655      9657      9652      9655      9658
      9653      9652      9654      9653      9652      9655      9654      9652      9655
      9655      9658      9659      9655      9658      9660      9655      9658      9661
      9656      9655      9657      9656      9655      9658      9657      9655      9658
      9658      9661      9662      9658      9661      9663      9658      9661      9664
      9659      9658      9660      9659      9658      9661      9660      9658      9661
      9661      9664      9665      9661      9664      9666      9661      9664      9667
      9662      9661      9663      9662      9661      9664      9663      9661      9664
      9664      9667      9668      9664      9667      9669      9664      9667      9670
      9665      9664      9666      9665      9664      9667      9666      9664      9667
      9667      9670      9671      9667      9670      9672      9667      9670      9673
      9668      9667      9669      9668      9667      9670      9669      9667      9670
      9671      9670      9672      9671      9670      9673      9672      9670      9673
      9674      9677      9678      9674      9677      9679      9674      9677      9680
      9675      9674      9676      9675      9674      9677      9676      9674      9677
      9677      9680      9681      9677      9680      9682      9677      9680      9683
      9678      9677      9679      9678      9677      9680      9679      9677      9680
      9680      9683      9684      9680      9683      9685      9680      9683      9686
      9681      9680      9682      9681      9680      9683      9682      9680      9683
      9683      9686      9687      9683      9686      9688      9683      9686      9689
      9684      9683      9685      9684      9683      9686      9685      9683      9686
      9686      9689      9690      9686      9689      9691      9686      9689      9692
      9687      9686      9688      9687      9686      9689      9688      9686      9689
      9689      9692      9693      9689      9692      9694      9689      9692      9695
      9690      9689      9691      9690      9689      9692      9691      9689      9692
      9692      9695      9696      9692      9695      9697      9692      9695      9698
      9693      9692      9694      9693      9692      9695      9694      9692      9695
      9695      9698      9699      9695      9698      9700      9695      9698      9701
      9696      9695      9697      9696      9695      9698      9697      9695      9698
      9698      9701      9702      9698      9701      9703      9698      9701      9704
      9699      9698      9700      9699      9698      9701      9700      9698      9701
      9701      9704      9705      9701      9704      9706      9701      9704      9707
      9702      9701      9703      9702      9701      9704      9703      9701      9704
      9704      9707      9708      9704      9707      9709      9704      9707      9710
      9705      9704      9706      9705      9704      9707      9706      9704      9707
      9707      9710      9711      9707      9710      9712      9707      9710      9713
      9708      9707      9709      9708      9707      9710      9709      9707      9710
      9710      9713      9714      9710      9713      9715      9710      9713      9716
      9711      9710      9712      9711      9710      9713      9712      9710      9713
      9714      9713      9715      9714      9713      9716      9715      9713      9716
      9717      9718      9719      9717      9718      9720      9717      9718      9733
      9717      9721      9722      9717      9721      9723      9717      9721      9724
      9717      9725      9726      9717      9725      9727      9717      9725      9728
      9717      9729      9730      9717      9729      9731      9717      9729      9732
      9718      9717      9721      9718      9717      9725      9718      9717      9729
      9718      9733      9734      9718      9733      9735      9718      9733      9739
      9719      9718      9720      9719      9718      9733      9720      9718      9733
      9721      9717      9725      9721      9717      9729      9722      9721      9723
      9722      9721      9724      9723      9721      9724      9725      9717      9729
      9726      9725      9727      9726      9725      9728      9727      9725      9728
      9730      9729      9731      9730      9729      9732      9731      9729      9732
      9733      9739      9736      9734      9733      9735      9734      9733      9739
      9735      9733      9739      9736      9740      9741      9737      9736      9738
      9737      9736      9739      9737      9736      9740      9738      9736      9739
      9738      9736      9740      9739      9736      9740      9740      9741      9742
      9740      9741      9743      9740      9741      9744      9741      9744      9745
      9741      9744      9746      9741      9744      9752      9742      9741      9743
      9742      9741      9744      9743      9741      9744      9744      9746      9747
      9744      9752      9753      9744      9752      9754      9744      9752      9755
      9745      9744      9746      9745      9744      9752      9746      9744      9752
      9746      9747      9748      9746      9747      9749      9747      9749      9750
      9747      9749      9751      9747      9749      9761      9748      9747      9749
      9749      9761      9762      9749      9761      9763      9749      9761      9764
      9750      9749      9751      9750      9749      9761      9751      9749      9761
      9752      9755      9756      9753      9752      9754      9753      9752      9755
      9754      9752      9755      9755      9756      9757      9755      9756      9758
      9756      9758      9759      9756      9758      9760      9756      9758      9808
      9757      9756      9758      9758      9808      9809      9758      9808      9810
      9758      9808      9811      9759      9758      9760      9759      9758      9808
      9760      9758      9808      9761      9764      9765      9761      9764      9766
      9761      9764      9767      9762      9761      9763      9762      9761      9764
      9763      9761      9764      9764      9767      9768      9764      9767      9769
      9764      9767      9770      9765      9764      9766      9765      9764      9767
      9766      9764      9767      9767      9770      9771      9767      9770      9772
      9767      9770      9773      9768      9767      9769      9768      9767      9770
      9769      9767      9770      9770      9773      9774      9770      9773      9775
      9770      9773      9776      9771      9770      9772      9771      9770      9773
      9772      9770      9773      9773      9776      9777      9773      9776      9778
      9773      9776      9779      9774      9773      9775      9774      9773      9776
      9775      9773      9776      9776      9779      9780      9776      9779      9781
      9777      9776      9778      9777      9776      9779      9778      9776      9779
      9779      9781      9782      9779      9781      9783      9780      9779      9781
      9781      9783      9784      9781      9783      9785      9781      9783      9786
      9782      9781      9783      9783      9786      9787      9783      9786      9788
      9783      9786      9789      9784      9783      9785      9784      9783      9786
      9785      9783      9786      9786      9789      9790      9786      9789      9791
      9786      9789      9792      9787      9786      9788      9787      9786      9789
      9788      9786      9789      9789      9792      9793      9789      9792      9794
      9789      9792      9795      9790      9789      9791      9790      9789      9792
      9791      9789      9792      9792      9795      9796      9792      9795      9797
      9792      9795      9798      9793      9792      9794      9793      9792      9795
      9794      9792      9795      9795      9798      9799      9795      9798      9800
      9795      9798      9801      9796      9795      9797      9796      9795      9798
      9797      9795      9798      9798      9801      9802      9798      9801      9803
      9798      9801      9804      9799      9798      9800      9799      9798      9801
      9800      9798      9801      9801      9804      9805      9801      9804      9806
      9801      9804      9807      9802      9801      9803      9802      9801      9804
      9803      9801      9804      9805      9804      9806      9805      9804      9807
      9806      9804      9807      9808      9811      9812      9808      9811      9813
      9808      9811      9814      9809      9808      9810      9809      9808      9811
      9810      9808      9811      9811      9814      9815      9811      9814      9816
      9811      9814      9817      9812      9811      9813      9812      9811      9814
      9813      9811      9814      9814      9817      9818      9814      9817      9819
      9814      9817      9820      9815      9814      9816      9815      9814      9817
      9816      9814      9817      9817      9820      9821      9817      9820      9822
      9817      9820      9823      9818      9817      9819      9818      9817      9820
      9819      9817      9820      9820      9823      9824      9820      9823      9825
      9820      9823      9826      9821      9820      9822      9821      9820      9823
      9822      9820      9823      9823      9826      9827      9823      9826      9828
      9823      9826      9829      9824      9823      9825      9824      9823      9826
      9825      9823      9826      9826      9829      9830      9826      9829      9831
      9826      9829      9832      9827      9826      9828      9827      9826      9829
      9828      9826      9829      9829      9832      9833      9829      9832      9834
      9829      9832      9835      9830      9829      9831      9830      9829      9832
      9831      9829      9832      9832      9835      9836      9832      9835      9837
      9832      9835      9838      9833      9832      9834      9833      9832      9835
      9834      9832      9835      9835      9838      9839      9835      9838      9840
      9835      9838      9841      9836      9835      9837      9836      9835      9838
      9837      9835      9838      9838      9841      9842      9838      9841      9843
      9838      9841      9844      9839      9838      9840      9839      9838      9841
      9840      9838      9841      9841      9844      9845      9841      9844      9846
      9841      9844      9847      9842      9841      9843      9842      9841      9844
      9843      9841      9844      9844      9847      9848      9844      9847      9849
      9844      9847      9850      9845      9844      9846      9845      9844      9847
      9846      9844      9847      9848      9847      9849      9848      9847      9850
      9849      9847      9850      9851      9852      9853      9851      9852      9854
      9851      9852      9867      9851      9855      9856      9851      9855      9857
      9851      9855      9858      9851      9859      9860      9851      9859      9861
      9851      9859      9862      9851      9863      9864      9851      9863      9865
      9851      9863      9866      9852      9851      9855      9852      9851      9859
      9852      9851      9863      9852      9867      9868      9852      9867      9869
      9852      9867      9873      9853      9852      9854      9853      9852      9867
      9854      9852      9867      9855      9851      9859      9855      9851      9863
      9856      9855      9857      9856      9855      9858      9857      9855      9858
      9859      9851      9863      9860      9859      9861      9860      9859      9862
      9861      9859      9862      9864      9863      9865      9864      9863      9866
      9865      9863      9866      9867      9873      9870      9868      9867      9869
      9868      9867      9873      9869      9867      9873      9870      9874      9875
      9871      9870      9872      9871      9870      9873      9871      9870      9874
      9872      9870      9873      9872      9870      9874      9873      9870      9874
      9874      9875      9876      9874      9875      9877      9874      9875      9878
      9875      9878      9879      9875      9878      9880      9875      9878      9886
      9876      9875      9877      9876      9875      9878      9877      9875      9878
      9878      9880      9881      9878      9886      9887      9878      9886      9888
      9878      9886      9889      9879      9878      9880      9879      9878      9886
      9880      9878      9886      9880      9881      9882      9880      9881      9883
      9881      9883      9884      9881      9883      9885      9881      9883      9895
      9882      9881      9883      9883      9895      9896      9883      9895      9897
      9883      9895      9898      9884      9883      9885      9884      9883      9895
      9885      9883      9895      9886      9889      9890      9887      9886      9888
      9887      9886      9889      9888      9886      9889      9889      9890      9891
      9889      9890      9892      9890      9892      9893      9890      9892      9894
      9890      9892      9942      9891      9890      9892      9892      9942      9943
      9892      9942      9944      9892      9942      9945      9893      9892      9894
      9893      9892      9942      9894      9892      9942      9895      9898      9899
      9895      9898      9900      9895      9898      9901      9896      9895      9897
      9896      9895      9898      9897      9895      9898      9898      9901      9902
      9898      9901      9903      9898      9901      9904      9899      9898      9900
      9899      9898      9901      9900      9898      9901      9901      9904      9905
      9901      9904      9906      9901      9904      9907      9902      9901      9903
      9902      9901      9904      9903      9901      9904      9904      9907      9908
      9904      9907      9909      9904      9907      9910      9905      9904      9906
      9905      9904      9907      9906      9904      9907      9907      9910      9911
      9907      9910      9912      9907      9910      9913      9908      9907      9909
      9908      9907      9910      9909      9907      9910      9910      9913      9914
      9910      9913      9915      9911      9910      9912      9911      9910      9913
      9912      9910      9913      9913      9915      9916      9913      9915      9917
      9914      9913      9915      9915      9917      9918      9915      9917      9919
      9915      9917      9920      9916      9915      9917      9917      9920      9921
      9917      9920      9922      9917      9920      9923      9918      9917      9919
      9918      9917      9920      9919      9917      9920      9920      9923      9924
      9920      9923      9925      9920      9923      9926      9921      9920      9922
      9921      9920      9923      9922      9920      9923      9923      9926      9927
      9923      9926      9928      9923      9926      9929      9924      9923      9925
      9924      9923      9926      9925      9923      9926      9926      9929      9930
      9926      9929      9931      9926      9929      9932      9927      9926      9928
      9927      9926      9929      9928      9926      9929      9929      9932      9933
      9929      9932      9934      9929      9932      9935      9930      9929      9931
      9930      9929      9932      9931      9929      9932      9932      9935      9936
      9932      9935      9937      9932      9935      9938      9933      9932      9934
      9933      9932      9935      9934      9932      9935      9935      9938      9939
      9935      9938      9940      9935      9938      9941      9936      9935      9937
      9936      9935      9938      9937      9935      9938      9939      9938      9940
      9939      9938      9941      9940      9938      9941      9942      9945      9946
      9942      9945      9947      9942      9945      9948      9943      9942      9944
      9943      9942      9945      9944      9942      9945      9945      9948      9949
      9945      9948      9950      9945      9948      9951      9946      9945      9947
      9946      9945      9948      9947      9945      9948      9948      9951      9952
      9948      9951      9953      9948      9951      9954      9949      9948      9950
      9949      9948      9951      9950      9948      9951      9951      9954      9955
      9951      9954      9956      9951      9954      9957      9952      9951      9953
      9952      9951      9954      9953      9951      9954      9954      9957      9958
      9954      9957      9959      9954      9957      9960      9955      9954      9956
      9955      9954      9957      9956      9954      9957      9957      9960      9961
      9957      9960      9962      9957      9960      9963      9958      9957      9959
      9958      9957      9960      9959      9957      9960      9960      9963      9964
      9960      9963      9965      9960      9963      9966      9961      9960      9962
      9961      9960      9963      9962      9960      9963      9963      9966      9967
      9963      9966      9968      9963      9966      9969      9964      9963      9965
      9964      9963      9966      9965      9963      9966      9966      9969      9970
      9966      9969      9971      9966      9969      9972      9967      9966      9968
      9967      9966      9969      9968      9966      9969      9969      9972      9973
      9969      9972      9974      9969      9972      9975      9970      9969      9971
      9970      9969      9972      9971      9969      9972      9972      9975      9976
      9972      9975      9977      9972      9975      9978      9973      9972      9974
      9973      9972      9975      9974      9972      9975      9975      9978      9979
      9975      9978      9980      9975      9978      9981      9976      9975      9977
      9976      9975      9978      9977      9975      9978      9978      9981      9982
      9978      9981      9983      9978      9981      9984      9979      9978      9980
      9979      9978      9981      9980      9978      9981      9982      9981      9983
      9982      9981      9984      9983      9981      9984      9985      9986      9987
      9985      9986      9988      9985      9986     10001      9985      9989      9990
      9985      9989      9991      9985      9989      9992      9985      9993      9994
      9985      9993      9995      9985      9993      9996      9985      9997      9998
      9985      9997      9999      9985      9997     10000      9986      9985      9989
      9986      9985      9993      9986      9985      9997      9986     10001     10002
      9986     10001     10003      9986     10001     10007      9987      9986      9988
      9987      9986     10001      9988      9986     10001      9989      9985      9993
      9989      9985      9997      9990      9989      9991      9990      9989      9992
      9991      9989      9992      9993      9985      9997      9994      9993      9995
      9994      9993      9996      9995      9993      9996      9998      9997      9999
      9998      9997     10000      9999      9997     10000     10001     10007     10004
     10002     10001     10003     10002     10001     10007     10003     10001     10007
     10004     10008     10009     10005     10004     10006     10005     10004     10007
     10005     10004     10008     10006     10004     10007     10006     10004     10008
     10007     10004     10008     10008     10009     10010     10008     10009     10011
     10008     10009     10012     10009     10012     10013     10009     10012     10014
     10009     10012     10020     10010     10009     10011     10010     10009     10012
     10011     10009     10012     10012     10014     10015     10012     10020     10021
     10012     10020     10022     10012     10020     10023     10013     10012     10014
     10013     10012     10020     10014     10012     10020     10014     10015     10016
     10014     10015     10017     10015     10017     10018     10015     10017     10019
     10015     10017     10029     10016     10015     10017     10017     10029     10030
     10017     10029     10031     10017     10029     10032     10018     10017     10019
     10018     10017     10029     10019     10017     10029     10020     10023     10024
     10021     10020     10022     10021     10020     10023     10022     10020     10023
     10023     10024     10025     10023     10024     10026     10024     10026     10027
     10024     10026     10028     10024     10026     10076     10025     10024     10026
     10026     10076     10077     10026     10076     10078     10026     10076     10079
     10027     10026     10028     10027     10026     10076     10028     10026     10076
     10029     10032     10033     10029     10032     10034     10029     10032     10035
     10030     10029     10031     10030     10029     10032     10031     10029     10032
     10032     10035     10036     10032     10035     10037     10032     10035     10038
     10033     10032     10034     10033     10032     10035     10034     10032     10035
     10035     10038     10039     10035     10038     10040     10035     10038     10041
     10036     10035     10037     10036     10035     10038     10037     10035     10038
     10038     10041     10042     10038     10041     10043     10038     10041     10044
     10039     10038     10040     10039     10038     10041     10040     10038     10041
     10041     10044     10045     10041     10044     10046     10041     10044     10047
     10042     10041     10043     10042     10041     10044     10043     10041     10044
     10044     10047     10048     10044     10047     10049     10045     10044     10046
     10045     10044     10047     10046     10044     10047     10047     10049     10050
     10047     10049     10051     10048     10047     10049     10049     10051     10052
     10049     10051     10053     10049     10051     10054     10050     10049     10051
     10051     10054     10055     10051     10054     10056     10051     10054     10057
     10052     10051     10053     10052     10051     10054     10053     10051     10054
     10054     10057     10058     10054     10057     10059     10054     10057     10060
     10055     10054     10056     10055     10054     10057     10056     10054     10057
     10057     10060     10061     10057     10060     10062     10057     10060     10063
     10058     10057     10059     10058     10057     10060     10059     10057     10060
     10060     10063     10064     10060     10063     10065     10060     10063     10066
     10061     10060     10062     10061     10060     10063     10062     10060     10063
     10063     10066     10067     10063     10066     10068     10063     10066     10069
     10064     10063     10065     10064     10063     10066     10065     10063     10066
     10066     10069     10070     10066     10069     10071     10066     10069     10072
     10067     10066     10068     10067     10066     10069     10068     10066     10069
     10069     10072     10073     10069     10072     10074     10069     10072     10075
     10070     10069     10071     10070     10069     10072     10071     10069     10072
     10073     10072     10074     10073     10072     10075     10074     10072     10075
     10076     10079     10080     10076     10079     10081     10076     10079     10082
     10077     10076     10078     10077     10076     10079     10078     10076     10079
     10079     10082     10083     10079     10082     10084     10079     10082     10085
     10080     10079     10081     10080     10079     10082     10081     10079     10082
     10082     10085     10086     10082     10085     10087     10082     10085     10088
     10083     10082     10084     10083     10082     10085     10084     10082     10085
     10085     10088     10089     10085     10088     10090     10085     10088     10091
     10086     10085     10087     10086     10085     10088     10087     10085     10088
     10088     10091     10092     10088     10091     10093     10088     10091     10094
     10089     10088     10090     10089     10088     10091     10090     10088     10091
     10091     10094     10095     10091     10094     10096     10091     10094     10097
     10092     10091     10093     10092     10091     10094     10093     10091     10094
     10094     10097     10098     10094     10097     10099     10094     10097     10100
     10095     10094     10096     10095     10094     10097     10096     10094     10097
     10097     10100     10101     10097     10100     10102     10097     10100     10103
     10098     10097     10099     10098     10097     10100     10099     10097     10100
     10100     10103     10104     10100     10103     10105     10100     10103     10106
     10101     10100     10102     10101     10100     10103     10102     10100     10103
     10103     10106     10107     10103     10106     10108     10103     10106     10109
     10104     10103     10105     10104     10103     10106     10105     10103     10106
     10106     10109     10110     10106     10109     10111     10106     10109     10112
     10107     10106     10108     10107     10106     10109     10108     10106     10109
     10109     10112     10113     10109     10112     10114     10109     10112     10115
     10110     10109     10111     10110     10109     10112     10111     10109     10112
     10112     10115     10116     10112     10115     10117     10112     10115     10118
     10113     10112     10114     10113     10112     10115     10114     10112     10115
     10116     10115     10117     10116     10115     10118     10117     10115     10118
     10119     10120     10121     10119     10120     10122     10119     10120     10135
     10119     10123     10124     10119     10123     10125     10119     10123     10126
     10119     10127     10128     10119     10127     10129     10119     10127     10130
     10119     10131     10132     10119     10131     10133     10119     10131     10134
     10120     10119     10123     10120     10119     10127     10120     10119     10131
     10120     10135     10136     10120     10135     10137     10120     10135     10141
     10121     10120     10122     10121     10120     10135     10122     10120     10135
     10123     10119     10127     10123     10119     10131     10124     10123     10125
     10124     10123     10126     10125     10123     10126     10127     10119     10131
     10128     10127     10129     10128     10127     10130     10129     10127     10130
     10132     10131     10133     10132     10131     10134     10133     10131     10134
     10135     10141     10138     10136     10135     10137     10136     10135     10141
     10137     10135     10141     10138     10142     10143     10139     10138     10140
     10139     10138     10141     10139     10138     10142     10140     10138     10141
     10140     10138     10142     10141     10138     10142     10142     10143     10144
     10142     10143     10145     10142     10143     10146     10143     10146     10147
     10143     10146     10148     10143     10146     10154     10144     10143     10145
     10144     10143     10146     10145     10143     10146     10146     10148     10149
     10146     10154     10155     10146     10154     10156     10146     10154     10157
     10147     10146     10148     10147     10146     10154     10148     10146     10154
     10148     10149     10150     10148     10149     10151     10149     10151     10152
     10149     10151     10153     10149     10151     10163     10150     10149     10151
     10151     10163     10164     10151     10163     10165     10151     10163     10166
     10152     10151     10153     10152     10151     10163     10153     10151     10163
     10154     10157     10158     10155     10154     10156     10155     10154     10157
     10156     10154     10157     10157     10158     10159     10157     10158     10160
     10158     10160     10161     10158     10160     10162     10158     10160     10210
     10159     10158     10160     10160     10210     10211     10160     10210     10212
     10160     10210     10213     10161     10160     10162     10161     10160     10210
     10162     10160     10210     10163     10166     10167     10163     10166     10168
     10163     10166     10169     10164     10163     10165     10164     10163     10166
     10165     10163     10166     10166     10169     10170     10166     10169     10171
     10166     10169     10172     10167     10166     10168     10167     10166     10169
     10168     10166     10169     10169     10172     10173     10169     10172     10174
     10169     10172     10175     10170     10169     10171     10170     10169     10172
     10171     10169     10172     10172     10175     10176     10172     10175     10177
     10172     10175     10178     10173     10172     10174     10173     10172     10175
     10174     10172     10175     10175     10178     10179     10175     10178     10180
     10175     10178     10181     10176     10175     10177     10176     10175     10178
     10177     10175     10178     10178     10181     10182     10178     10181     10183
     10179     10178     10180     10179     10178     10181     10180     10178     10181
     10181     10183     10184     10181     10183     10185     10182     10181     10183
     10183     10185     10186     10183     10185     10187     10183     10185     10188
     10184     10183     10185     10185     10188     10189     10185     10188     10190
     10185     10188     10191     10186     10185     10187     10186     10185     10188
     10187     10185     10188     10188     10191     10192     10188     10191     10193
     10188     10191     10194     10189     10188     10190     10189     10188     10191
     10190     10188     10191     10191     10194     10195     10191     10194     10196
     10191     10194     10197     10192     10191     10193     10192     10191     10194
     10193     10191     10194     10194     10197     10198     10194     10197     10199
     10194     10197     10200     10195     10194     10196     10195     10194     10197
     10196     10194     10197     10197     10200     10201     10197     10200     10202
     10197     10200     10203     10198     10197     10199     10198     10197     10200
     10199     10197     10200     10200     10203     10204     10200     10203     10205
     10200     10203     10206     10201     10200     10202     10201     10200     10203
     10202     10200     10203     10203     10206     10207     10203     10206     10208
     10203     10206     10209     10204     10203     10205     10204     10203     10206
     10205     10203     10206     10207     10206     10208     10207     10206     10209
     10208     10206     10209     10210     10213     10214     10210     10213     10215
     10210     10213     10216     10211     10210     10212     10211     10210     10213
     10212     10210     10213     10213     10216     10217     10213     10216     10218
     10213     10216     10219     10214     10213     10215     10214     10213     10216
     10215     10213     10216     10216     10219     10220     10216     10219     10221
     10216     10219     10222     10217     10216     10218     10217     10216     10219
     10218     10216     10219     10219     10222     10223     10219     10222     10224
     10219     10222     10225     10220     10219     10221     10220     10219     10222
     10221     10219     10222     10222     10225     10226     10222     10225     10227
     10222     10225     10228     10223     10222     10224     10223     10222     10225
     10224     10222     10225     10225     10228     10229     10225     10228     10230
     10225     10228     10231     10226     10225     10227     10226     10225     10228
     10227     10225     10228     10228     10231     10232     10228     10231     10233
     10228     10231     10234     10229     10228     10230     10229     10228     10231
     10230     10228     10231     10231     10234     10235     10231     10234     10236
     10231     10234     10237     10232     10231     10233     10232     10231     10234
     10233     10231     10234     10234     10237     10238     10234     10237     10239
     10234     10237     10240     10235     10234     10236     10235     10234     10237
     10236     10234     10237     10237     10240     10241     10237     10240     10242
     10237     10240     10243     10238     10237     10239     10238     10237     10240
     10239     10237     10240     10240     10243     10244     10240     10243     10245
     10240     10243     10246     10241     10240     10242     10241     10240     10243
     10242     10240     10243     10243     10246     10247     10243     10246     10248
     10243     10246     10249     10244     10243     10245     10244     10243     10246
     10245     10243     10246     10246     10249     10250     10246     10249     10251
     10246     10249     10252     10247     10246     10248     10247     10246     10249
     10248     10246     10249     10250     10249     10251     10250     10249     10252
     10251     10249     10252     10253     10254     10255     10253     10254     10256
     10253     10254     10269     10253     10257     10258     10253     10257     10259
     10253     10257     10260     10253     10261     10262     10253     10261     10263
     10253     10261     10264     10253     10265     10266     10253     10265     10267
     10253     10265     10268     10254     10253     10257     10254     10253     10261
     10254     10253     10265     10254     10269     10270     10254     10269     10271
     10254     10269     10275     10255     10254     10256     10255     10254     10269
     10256     10254     10269     10257     10253     10261     10257     10253     10265
     10258     10257     10259     10258     10257     10260     10259     10257     10260
     10261     10253     10265     10262     10261     10263     10262     10261     10264
     10263     10261     10264     10266     10265     10267     10266     10265     10268
     10267     10265     10268     10269     10275     10272     10270     10269     10271
     10270     10269     10275     10271     10269     10275     10272     10276     10277
     10273     10272     10274     10273     10272     10275     10273     10272     10276
     10274     10272     10275     10274     10272     10276     10275     10272     10276
     10276     10277     10278     10276     10277     10279     10276     10277     10280
     10277     10280     10281     10277     10280     10282     10277     10280     10288
     10278     10277     10279     10278     10277     10280     10279     10277     10280
     10280     10282     10283     10280     10288     10289     10280     10288     10290
     10280     10288     10291     10281     10280     10282     10281     10280     10288
     10282     10280     10288     10282     10283     10284     10282     10283     10285
     10283     10285     10286     10283     10285     10287     10283     10285     10297
     10284     10283     10285     10285     10297     10298     10285     10297     10299
     10285     10297     10300     10286     10285     10287     10286     10285     10297
     10287     10285     10297     10288     10291     10292     10289     10288     10290
     10289     10288     10291     10290     10288     10291     10291     10292     10293
     10291     10292     10294     10292     10294     10295     10292     10294     10296
     10292     10294     10344     10293     10292     10294     10294     10344     10345
     10294     10344     10346     10294     10344     10347     10295     10294     10296
     10295     10294     10344     10296     10294     10344     10297     10300     10301
     10297     10300     10302     10297     10300     10303     10298     10297     10299
     10298     10297     10300     10299     10297     10300     10300     10303     10304
     10300     10303     10305     10300     10303     10306     10301     10300     10302
     10301     10300     10303     10302     10300     10303     10303     10306     10307
     10303     10306     10308     10303     10306     10309     10304     10303     10305
     10304     10303     10306     10305     10303     10306     10306     10309     10310
     10306     10309     10311     10306     10309     10312     10307     10306     10308
     10307     10306     10309     10308     10306     10309     10309     10312     10313
     10309     10312     10314     10309     10312     10315     10310     10309     10311
     10310     10309     10312     10311     10309     10312     10312     10315     10316
     10312     10315     10317     10313     10312     10314     10313     10312     10315
     10314     10312     10315     10315     10317     10318     10315     10317     10319
     10316     10315     10317     10317     10319     10320     10317     10319     10321
     10317     10319     10322     10318     10317     10319     10319     10322     10323
     10319     10322     10324     10319     10322     10325     10320     10319     10321
     10320     10319     10322     10321     10319     10322     10322     10325     10326
     10322     10325     10327     10322     10325     10328     10323     10322     10324
     10323     10322     10325     10324     10322     10325     10325     10328     10329
     10325     10328     10330     10325     10328     10331     10326     10325     10327
     10326     10325     10328     10327     10325     10328     10328     10331     10332
     10328     10331     10333     10328     10331     10334     10329     10328     10330
     10329     10328     10331     10330     10328     10331     10331     10334     10335
     10331     10334     10336     10331     10334     10337     10332     10331     10333
     10332     10331     10334     10333     10331     10334     10334     10337     10338
     10334     10337     10339     10334     10337     10340     10335     10334     10336
     10335     10334     10337     10336     10334     10337     10337     10340     10341
     10337     10340     10342     10337     10340     10343     10338     10337     10339
     10338     10337     10340     10339     10337     10340     10341     10340     10342
     10341     10340     10343     10342     10340     10343     10344     10347     10348
     10344     10347     10349     10344     10347     10350     10345     10344     10346
     10345     10344     10347     10346     10344     10347     10347     10350     10351
     10347     10350     10352     10347     10350     10353     10348     10347     10349
     10348     10347     10350     10349     10347     10350     10350     10353     10354
     10350     10353     10355     10350     10353     10356     10351     10350     10352
     10351     10350     10353     10352     10350     10353     10353     10356     10357
     10353     10356     10358     10353     10356     10359     10354     10353     10355
     10354     10353     10356     10355     10353     10356     10356     10359     10360
     10356     10359     10361     10356     10359     10362     10357     10356     10358
     10357     10356     10359     10358     10356     10359     10359     10362     10363
     10359     10362     10364     10359     10362     10365     10360     10359     10361
     10360     10359     10362     10361     10359     10362     10362     10365     10366
     10362     10365     10367     10362     10365     10368     10363     10362     10364
     10363     10362     10365     10364     10362     10365     10365     10368     10369
     10365     10368     10370     10365     10368     10371     10366     10365     10367
     10366     10365     10368     10367     10365     10368     10368     10371     10372
     10368     10371     10373     10368     10371     10374     10369     10368     10370
     10369     10368     10371     10370     10368     10371     10371     10374     10375
     10371     10374     10376     10371     10374     10377     10372     10371     10373
     10372     10371     10374     10373     10371     10374     10374     10377     10378
     10374     10377     10379     10374     10377     10380     10375     10374     10376
     10375     10374     10377     10376     10374     10377     10377     10380     10381
     10377     10380     10382     10377     10380     10383     10378     10377     10379
     10378     10377     10380     10379     10377     10380     10380     10383     10384
     10380     10383     10385     10380     10383     10386     10381     10380     10382
     10381     10380     10383     10382     10380     10383     10384     10383     10385
     10384     10383     10386     10385     10383     10386     10387     10388     10389
     10387     10388     10390     10387     10388     10403     10387     10391     10392
     10387     10391     10393     10387     10391     10394     10387     10395     10396
     10387     10395     10397     10387     10395     10398     10387     10399     10400
     10387     10399     10401     10387     10399     10402     10388     10387     10391
     10388     10387     10395     10388     10387     10399     10388     10403     10404
     10388     10403     10405     10388     10403     10409     10389     10388     10390
     10389     10388     10403     10390     10388     10403     10391     10387     10395
     10391     10387     10399     10392     10391     10393     10392     10391     10394
     10393     10391     10394     10395     10387     10399     10396     10395     10397
     10396     10395     10398     10397     10395     10398     10400     10399     10401
     10400     10399     10402     10401     10399     10402     10403     10409     10406
     10404     10403     10405     10404     10403     10409     10405     10403     10409
     10406     10410     10411     10407     10406     10408     10407     10406     10409
     10407     10406     10410     10408     10406     10409     10408     10406     10410
     10409     10406     10410     10410     10411     10412     10410     10411     10413
     10410     10411     10414     10411     10414     10415     10411     10414     10416
     10411     10414     10422     10412     10411     10413     10412     10411     10414
     10413     10411     10414     10414     10416     10417     10414     10422     10423
     10414     10422     10424     10414     10422     10425     10415     10414     10416
     10415     10414     10422     10416     10414     10422     10416     10417     10418
     10416     10417     10419     10417     10419     10420     10417     10419     10421
     10417     10419     10431     10418     10417     10419     10419     10431     10432
     10419     10431     10433     10419     10431     10434     10420     10419     10421
     10420     10419     10431     10421     10419     10431     10422     10425     10426
     10423     10422     10424     10423     10422     10425     10424     10422     10425
     10425     10426     10427     10425     10426     10428     10426     10428     10429
     10426     10428     10430     10426     10428     10478     10427     10426     10428
     10428     10478     10479     10428     10478     10480     10428     10478     10481
     10429     10428     10430     10429     10428     10478     10430     10428     10478
     10431     10434     10435     10431     10434     10436     10431     10434     10437
     10432     10431     10433     10432     10431     10434     10433     10431     10434
     10434     10437     10438     10434     10437     10439     10434     10437     10440
     10435     10434     10436     10435     10434     10437     10436     10434     10437
     10437     10440     10441     10437     10440     10442     10437     10440     10443
     10438     10437     10439     10438     10437     10440     10439     10437     10440
     10440     10443     10444     10440     10443     10445     10440     10443     10446
     10441     10440     10442     10441     10440     10443     10442     10440     10443
     10443     10446     10447     10443     10446     10448     10443     10446     10449
     10444     10443     10445     10444     10443     10446     10445     10443     10446
     10446     10449     10450     10446     10449     10451     10447     10446     10448
     10447     10446     10449     10448     10446     10449     10449     10451     10452
     10449     10451     10453     10450     10449     10451     10451     10453     10454
     10451     10453     10455     10451     10453     10456     10452     10451     10453
     10453     10456     10457     10453     10456     10458     10453     10456     10459
     10454     10453     10455     10454     10453     10456     10455     10453     10456
     10456     10459     10460     10456     10459     10461     10456     10459     10462
     10457     10456     10458     10457     10456     10459     10458     10456     10459
     10459     10462     10463     10459     10462     10464     10459     10462     10465
     10460     10459     10461     10460     10459     10462     10461     10459     10462
     10462     10465     10466     10462     10465     10467     10462     10465     10468
     10463     10462     10464     10463     10462     10465     10464     10462     10465
     10465     10468     10469     10465     10468     10470     10465     10468     10471
     10466     10465     10467     10466     10465     10468     10467     10465     10468
     10468     10471     10472     10468     10471     10473     10468     10471     10474
     10469     10468     10470     10469     10468     10471     10470     10468     10471
     10471     10474     10475     10471     10474     10476     10471     10474     10477
     10472     10471     10473     10472     10471     10474     10473     10471     10474
     10475     10474     10476     10475     10474     10477     10476     10474     10477
     10478     10481     10482     10478     10481     10483     10478     10481     10484
     10479     10478     10480     10479     10478     10481     10480     10478     10481
     10481     10484     10485     10481     10484     10486     10481     10484     10487
     10482     10481     10483     10482     10481     10484     10483     10481     10484
     10484     10487     10488     10484     10487     10489     10484     10487     10490
     10485     10484     10486     10485     10484     10487     10486     10484     10487
     10487     10490     10491     10487     10490     10492     10487     10490     10493
     10488     10487     10489     10488     10487     10490     10489     10487     10490
     10490     10493     10494     10490     10493     10495     10490     10493     10496
     10491     10490     10492     10491     10490     10493     10492     10490     10493
     10493     10496     10497     10493     10496     10498     10493     10496     10499
     10494     10493     10495     10494     10493     10496     10495     10493     10496
     10496     10499     10500     10496     10499     10501     10496     10499     10502
     10497     10496     10498     10497     10496     10499     10498     10496     10499
     10499     10502     10503     10499     10502     10504     10499     10502     10505
     10500     10499     10501     10500     10499     10502     10501     10499     10502
     10502     10505     10506     10502     10505     10507     10502     10505     10508
     10503     10502     10504     10503     10502     10505     10504     10502     10505
     10505     10508     10509     10505     10508     10510     10505     10508     10511
     10506     10505     10507     10506     10505     10508     10507     10505     10508
     10508     10511     10512     10508     10511     10513     10508     10511     10514
     10509     10508     10510     10509     10508     10511     10510     10508     10511
     10511     10514     10515     10511     10514     10516     10511     10514     10517
     10512     10511     10513     10512     10511     10514     10513     10511     10514
     10514     10517     10518     10514     10517     10519     10514     10517     10520
     10515     10514     10516     10515     10514     10517     10516     10514     10517
     10518     10517     10519     10518     10517     10520     10519     10517     10520
     10521     10522     10523     10521     10522     10524     10521     10522     10537
     10521     10525     10526     10521     10525     10527     10521     10525     10528
     10521     10529     10530     10521     10529     10531     10521     10529     10532
     10521     10533     10534     10521     10533     10535     10521     10533     10536
     10522     10521     10525     10522     10521     10529     10522     10521     10533
     10522     10537     10538     10522     10537     10539     10522     10537     10543
     10523     10522     10524     10523     10522     10537     10524     10522     10537
     10525     10521     10529     10525     10521     10533     10526     10525     10527
     10526     10525     10528     10527     10525     10528     10529     10521     10533
     10530     10529     10531     10530     10529     10532     10531     10529     10532
     10534     10533     10535     10534     10533     10536     10535     10533     10536
     10537     10543     10540     10538     10537     10539     10538     10537     10543
     10539     10537     10543     10540     10544     10545     10541     10540     10542
     10541     10540     10543     10541     10540     10544     10542     10540     10543
     10542     10540     10544     10543     10540     10544     10544     10545     10546
     10544     10545     10547     10544     10545     10548     10545     10548     10549
     10545     10548     10550     10545     10548     10556     10546     10545     10547
     10546     10545     10548     10547     10545     10548     10548     10550     10551
     10548     10556     10557     10548     10556     10558     10548     10556     10559
     10549     10548     10550     10549     10548     10556     10550     10548     10556
     10550     10551     10552     10550     10551     10553     10551     10553     10554
     10551     10553     10555     10551     10553     10565     10552     10551     10553
     10553     10565     10566     10553     10565     10567     10553     10565     10568
     10554     10553     10555     10554     10553     10565     10555     10553     10565
     10556     10559     10560     10557     10556     10558     10557     10556     10559
     10558     10556     10559     10559     10560     10561     10559     10560     10562
     10560     10562     10563     10560     10562     10564     10560     10562     10612
     10561     10560     10562     10562     10612     10613     10562     10612     10614
     10562     10612     10615     10563     10562     10564     10563     10562     10612
     10564     10562     10612     10565     10568     10569     10565     10568     10570
     10565     10568     10571     10566     10565     10567     10566     10565     10568
     10567     10565     10568     10568     10571     10572     10568     10571     10573
     10568     10571     10574     10569     10568     10570     10569     10568     10571
     10570     10568     10571     10571     10574     10575     10571     10574     10576
     10571     10574     10577     10572     10571     10573     10572     10571     10574
     10573     10571     10574     10574     10577     10578     10574     10577     10579
     10574     10577     10580     10575     10574     10576     10575     10574     10577
     10576     10574     10577     10577     10580     10581     10577     10580     10582
     10577     10580     10583     10578     10577     10579     10578     10577     10580
     10579     10577     10580     10580     10583     10584     10580     10583     10585
     10581     10580     10582     10581     10580     10583     10582     10580     10583
     10583     10585     10586     10583     10585     10587     10584     10583     10585
     10585     10587     10588     10585     10587     10589     10585     10587     10590
     10586     10585     10587     10587     10590     10591     10587     10590     10592
     10587     10590     10593     10588     10587     10589     10588     10587     10590
     10589     10587     10590     10590     10593     10594     10590     10593     10595
     10590     10593     10596     10591     10590     10592     10591     10590     10593
     10592     10590     10593     10593     10596     10597     10593     10596     10598
     10593     10596     10599     10594     10593     10595     10594     10593     10596
     10595     10593     10596     10596     10599     10600     10596     10599     10601
     10596     10599     10602     10597     10596     10598     10597     10596     10599
     10598     10596     10599     10599     10602     10603     10599     10602     10604
     10599     10602     10605     10600     10599     10601     10600     10599     10602
     10601     10599     10602     10602     10605     10606     10602     10605     10607
     10602     10605     10608     10603     10602     10604     10603     10602     10605
     10604     10602     10605     10605     10608     10609     10605     10608     10610
     10605     10608     10611     10606     10605     10607     10606     10605     10608
     10607     10605     10608     10609     10608     10610     10609     10608     10611
     10610     10608     10611     10612     10615     10616     10612     10615     10617
     10612     10615     10618     10613     10612     10614     10613     10612     10615
     10614     10612     10615     10615     10618     10619     10615     10618     10620
     10615     10618     10621     10616     10615     10617     10616     10615     10618
     10617     10615     10618     10618     10621     10622     10618     10621     10623
     10618     10621     10624     10619     10618     10620     10619     10618     10621
     10620     10618     10621     10621     10624     10625     10621     10624     10626
     10621     10624     10627     10622     10621     10623     10622     10621     10624
     10623     10621     10624     10624     10627     10628     10624     10627     10629
     10624     10627     10630     10625     10624     10626     10625     10624     10627
     10626     10624     10627     10627     10630     10631     10627     10630     10632
     10627     10630     10633     10628     10627     10629     10628     10627     10630
     10629     10627     10630     10630     10633     10634     10630     10633     10635
     10630     10633     10636     10631     10630     10632     10631     10630     10633
     10632     10630     10633     10633     10636     10637     10633     10636     10638
     10633     10636     10639     10634     10633     10635     10634     10633     10636
     10635     10633     10636     10636     10639     10640     10636     10639     10641
     10636     10639     10642     10637     10636     10638     10637     10636     10639
     10638     10636     10639     10639     10642     10643     10639     10642     10644
     10639     10642     10645     10640     10639     10641     10640     10639     10642
     10641     10639     10642     10642     10645     10646     10642     10645     10647
     10642     10645     10648     10643     10642     10644     10643     10642     10645
     10644     10642     10645     10645     10648     10649     10645     10648     10650
     10645     10648     10651     10646     10645     10647     10646     10645     10648
     10647     10645     10648     10648     10651     10652     10648     10651     10653
     10648     10651     10654     10649     10648     10650     10649     10648     10651
     10650     10648     10651     10652     10651     10653     10652     10651     10654
     10653     10651     10654     10655     10656     10657     10655     10656     10658
     10655     10656     10671     10655     10659     10660     10655     10659     10661
     10655     10659     10662     10655     10663     10664     10655     10663     10665
     10655     10663     10666     10655     10667     10668     10655     10667     10669
     10655     10667     10670     10656     10655     10659     10656     10655     10663
     10656     10655     10667     10656     10671     10672     10656     10671     10673
     10656     10671     10677     10657     10656     10658     10657     10656     10671
     10658     10656     10671     10659     10655     10663     10659     10655     10667
     10660     10659     10661     10660     10659     10662     10661     10659     10662
     10663     10655     10667     10664     10663     10665     10664     10663     10666
     10665     10663     10666     10668     10667     10669     10668     10667     10670
     10669     10667     10670     10671     10677     10674     10672     10671     10673
     10672     10671     10677     10673     10671     10677     10674     10678     10679
     10675     10674     10676     10675     10674     10677     10675     10674     10678
     10676     10674     10677     10676     10674     10678     10677     10674     10678
     10678     10679     10680     10678     10679     10681     10678     10679     10682
     10679     10682     10683     10679     10682     10684     10679     10682     10690
     10680     10679     10681     10680     10679     10682     10681     10679     10682
     10682     10684     10685     10682     10690     10691     10682     10690     10692
     10682     10690     10693     10683     10682     10684     10683     10682     10690
     10684     10682     10690     10684     10685     10686     10684     10685     10687
     10685     10687     10688     10685     10687     10689     10685     10687     10699
     10686     10685     10687     10687     10699     10700     10687     10699     10701
     10687     10699     10702     10688     10687     10689     10688     10687     10699
     10689     10687     10699     10690     10693     10694     10691     10690     10692
     10691     10690     10693     10692     10690     10693     10693     10694     10695
     10693     10694     10696     10694     10696     10697     10694     10696     10698
     10694     10696     10746     10695     10694     10696     10696     10746     10747
     10696     10746     10748     10696     10746     10749     10697     10696     10698
     10697     10696     10746     10698     10696     10746     10699     10702     10703
     10699     10702     10704     10699     10702     10705     10700     10699     10701
     10700     10699     10702     10701     10699     10702     10702     10705     10706
     10702     10705     10707     10702     10705     10708     10703     10702     10704
     10703     10702     10705     10704     10702     10705     10705     10708     10709
     10705     10708     10710     10705     10708     10711     10706     10705     10707
     10706     10705     10708     10707     10705     10708     10708     10711     10712
     10708     10711     10713     10708     10711     10714     10709     10708     10710
     10709     10708     10711     10710     10708     10711     10711     10714     10715
     10711     10714     10716     10711     10714     10717     10712     10711     10713
     10712     10711     10714     10713     10711     10714     10714     10717     10718
     10714     10717     10719     10715     10714     10716     10715     10714     10717
     10716     10714     10717     10717     10719     10720     10717     10719     10721
     10718     10717     10719     10719     10721     10722     10719     10721     10723
     10719     10721     10724     10720     10719     10721     10721     10724     10725
     10721     10724     10726     10721     10724     10727     10722     10721     10723
     10722     10721     10724     10723     10721     10724     10724     10727     10728
     10724     10727     10729     10724     10727     10730     10725     10724     10726
     10725     10724     10727     10726     10724     10727     10727     10730     10731
     10727     10730     10732     10727     10730     10733     10728     10727     10729
     10728     10727     10730     10729     10727     10730     10730     10733     10734
     10730     10733     10735     10730     10733     10736     10731     10730     10732
     10731     10730     10733     10732     10730     10733     10733     10736     10737
     10733     10736     10738     10733     10736     10739     10734     10733     10735
     10734     10733     10736     10735     10733     10736     10736     10739     10740
     10736     10739     10741     10736     10739     10742     10737     10736     10738
     10737     10736     10739     10738     10736     10739     10739     10742     10743
     10739     10742     10744     10739     10742     10745     10740     10739     10741
     10740     10739     10742     10741     10739     10742     10743     10742     10744
     10743     10742     10745     10744     10742     10745     10746     10749     10750
     10746     10749     10751     10746     10749     10752     10747     10746     10748
     10747     10746     10749     10748     10746     10749     10749     10752     10753
     10749     10752     10754     10749     10752     10755     10750     10749     10751
     10750     10749     10752     10751     10749     10752     10752     10755     10756
     10752     10755     10757     10752     10755     10758     10753     10752     10754
     10753     10752     10755     10754     10752     10755     10755     10758     10759
     10755     10758     10760     10755     10758     10761     10756     10755     10757
     10756     10755     10758     10757     10755     10758     10758     10761     10762
     10758     10761     10763     10758     10761     10764     10759     10758     10760
     10759     10758     10761     10760     10758     10761     10761     10764     10765
     10761     10764     10766     10761     10764     10767     10762     10761     10763
     10762     10761     10764     10763     10761     10764     10764     10767     10768
     10764     10767     10769     10764     10767     10770     10765     10764     10766
     10765     10764     10767     10766     10764     10767     10767     10770     10771
     10767     10770     10772     10767     10770     10773     10768     10767     10769
     10768     10767     10770     10769     10767     10770     10770     10773     10774
     10770     10773     10775     10770     10773     10776     10771     10770     10772
     10771     10770     10773     10772     10770     10773     10773     10776     10777
     10773     10776     10778     10773     10776     10779     10774     10773     10775
     10774     10773     10776     10775     10773     10776     10776     10779     10780
     10776     10779     10781     10776     10779     10782     10777     10776     10778
     10777     10776     10779     10778     10776     10779     10779     10782     10783
     10779     10782     10784     10779     10782     10785     10780     10779     10781
     10780     10779     10782     10781     10779     10782     10782     10785     10786
     10782     10785     10787     10782     10785     10788     10783     10782     10784
     10783     10782     10785     10784     10782     10785     10786     10785     10787
     10786     10785     10788     10787     10785     10788     10789     10790     10791
     10789     10790     10792     10789     10790     10805     10789     10793     10794
     10789     10793     10795     10789     10793     10796     10789     10797     10798
     10789     10797     10799     10789     10797     10800     10789     10801     10802
     10789     10801     10803     10789     10801     10804     10790     10789     10793
     10790     10789     10797     10790     10789     10801     10790     10805     10806
     10790     10805     10807     10790     10805     10811     10791     10790     10792
     10791     10790     10805     10792     10790     10805     10793     10789     10797
     10793     10789     10801     10794     10793     10795     10794     10793     10796
     10795     10793     10796     10797     10789     10801     10798     10797     10799
     10798     10797     10800     10799     10797     10800     10802     10801     10803
     10802     10801     10804     10803     10801     10804     10805     10811     10808
     10806     10805     10807     10806     10805     10811     10807     10805     10811
     10808     10812     10813     10809     10808     10810     10809     10808     10811
     10809     10808     10812     10810     10808     10811     10810     10808     10812
     10811     10808     10812     10812     10813     10814     10812     10813     10815
     10812     10813     10816     10813     10816     10817     10813     10816     10818
     10813     10816     10824     10814     10813     10815     10814     10813     10816
     10815     10813     10816     10816     10818     10819     10816     10824     10825
     10816     10824     10826     10816     10824     10827     10817     10816     10818
     10817     10816     10824     10818     10816     10824     10818     10819     10820
     10818     10819     10821     10819     10821     10822     10819     10821     10823
     10819     10821     10833     10820     10819     10821     10821     10833     10834
     10821     10833     10835     10821     10833     10836     10822     10821     10823
     10822     10821     10833     10823     10821     10833     10824     10827     10828
     10825     10824     10826     10825     10824     10827     10826     10824     10827
     10827     10828     10829     10827     10828     10830     10828     10830     10831
     10828     10830     10832     10828     10830     10880     10829     10828     10830
     10830     10880     10881     10830     10880     10882     10830     10880     10883
     10831     10830     10832     10831     10830     10880     10832     10830     10880
     10833     10836     10837     10833     10836     10838     10833     10836     10839
     10834     10833     10835     10834     10833     10836     10835     10833     10836
     10836     10839     10840     10836     10839     10841     10836     10839     10842
     10837     10836     10838     10837     10836     10839     10838     10836     10839
     10839     10842     10843     10839     10842     10844     10839     10842     10845
     10840     10839     10841     10840     10839     10842     10841     10839     10842
     10842     10845     10846     10842     10845     10847     10842     10845     10848
     10843     10842     10844     10843     10842     10845     10844     10842     10845
     10845     10848     10849     10845     10848     10850     10845     10848     10851
     10846     10845     10847     10846     10845     10848     10847     10845     10848
     10848     10851     10852     10848     10851     10853     10849     10848     10850
     10849     10848     10851     10850     10848     10851     10851     10853     10854
     10851     10853     10855     10852     10851     10853     10853     10855     10856
     10853     10855     10857     10853     10855     10858     10854     10853     10855
     10855     10858     10859     10855     10858     10860     10855     10858     10861
     10856     10855     10857     10856     10855     10858     10857     10855     10858
     10858     10861     10862     10858     10861     10863     10858     10861     10864
     10859     10858     10860     10859     10858     10861     10860     10858     10861
     10861     10864     10865     10861     10864     10866     10861     10864     10867
     10862     10861     10863     10862     10861     10864     10863     10861     10864
     10864     10867     10868     10864     10867     10869     10864     10867     10870
     10865     10864     10866     10865     10864     10867     10866     10864     10867
     10867     10870     10871     10867     10870     10872     10867     10870     10873
     10868     10867     10869     10868     10867     10870     10869     10867     10870
     10870     10873     10874     10870     10873     10875     10870     10873     10876
     10871     10870     10872     10871     10870     10873     10872     10870     10873
     10873     10876     10877     10873     10876     10878     10873     10876     10879
     10874     10873     10875     10874     10873     10876     10875     10873     10876
     10877     10876     10878     10877     10876     10879     10878     10876     10879
     10880     10883     10884     10880     10883     10885     10880     10883     10886
     10881     10880     10882     10881     10880     10883     10882     10880     10883
     10883     10886     10887     10883     10886     10888     10883     10886     10889
     10884     10883     10885     10884     10883     10886     10885     10883     10886
     10886     10889     10890     10886     10889     10891     10886     10889     10892
     10887     10886     10888     10887     10886     10889     10888     10886     10889
     10889     10892     10893     10889     10892     10894     10889     10892     10895
     10890     10889     10891     10890     10889     10892     10891     10889     10892
     10892     10895     10896     10892     10895     10897     10892     10895     10898
     10893     10892     10894     10893     10892     10895     10894     10892     10895
     10895     10898     10899     10895     10898     10900     10895     10898     10901
     10896     10895     10897     10896     10895     10898     10897     10895     10898
     10898     10901     10902     10898     10901     10903     10898     10901     10904
     10899     10898     10900     10899     10898     10901     10900     10898     10901
     10901     10904     10905     10901     10904     10906     10901     10904     10907
     10902     10901     10903     10902     10901     10904     10903     10901     10904
     10904     10907     10908     10904     10907     10909     10904     10907     10910
     10905     10904     10906     10905     10904     10907     10906     10904     10907
     10907     10910     10911     10907     10910     10912     10907     10910     10913
     10908     10907     10909     10908     10907     10910     10909     10907     10910
     10910     10913     10914     10910     10913     10915     10910     10913     10916
     10911     10910     10912     10911     10910     10913     10912     10910     10913
     10913     10916     10917     10913     10916     10918     10913     10916     10919
     10914     10913     10915     10914     10913     10916     10915     10913     10916
     10916     10919     10920     10916     10919     10921     10916     10919     10922
     10917     10916     10918     10917     10916     10919     10918     10916     10919
     10920     10919     10921     10920     10919     10922     10921     10919     10922
     10923     10924     10925     10923     10924     10926     10923     10924     10939
     10923     10927     10928     10923     10927     10929     10923     10927     10930
     10923     10931     10932     10923     10931     10933     10923     10931     10934
     10923     10935     10936     10923     10935     10937     10923     10935     10938
     10924     10923     10927     10924     10923     10931     10924     10923     10935
     10924     10939     10940     10924     10939     10941     10924     10939     10945
     10925     10924     10926     10925     10924     10939     10926     10924     10939
     10927     10923     10931     10927     10923     10935     10928     10927     10929
     10928     10927     10930     10929     10927     10930     10931     10923     10935
     10932     10931     10933     10932     10931     10934     10933     10931     10934
     10936     10935     10937     10936     10935     10938     10937     10935     10938
     10939     10945     10942     10940     10939     10941     10940     10939     10945
     10941     10939     10945     10942     10946     10947     10943     10942     10944
     10943     10942     10945     10943     10942     10946     10944     10942     10945
     10944     10942     10946     10945     10942     10946     10946     10947     10948
     10946     10947     10949     10946     10947     10950     10947     10950     10951
     10947     10950     10952     10947     10950     10958     10948     10947     10949
     10948     10947     10950     10949     10947     10950     10950     10952     10953
     10950     10958     10959     10950     10958     10960     10950     10958     10961
     10951     10950     10952     10951     10950     10958     10952     10950     10958
     10952     10953     10954     10952     10953     10955     10953     10955     10956
     10953     10955     10957     10953     10955     10967     10954     10953     10955
     10955     10967     10968     10955     10967     10969     10955     10967     10970
     10956     10955     10957     10956     10955     10967     10957     10955     10967
     10958     10961     10962     10959     10958     10960     10959     10958     10961
     10960     10958     10961     10961     10962     10963     10961     10962     10964
     10962     10964     10965     10962     10964     10966     10962     10964     11014
     10963     10962     10964     10964     11014     11015     10964     11014     11016
     10964     11014     11017     10965     10964     10966     10965     10964     11014
     10966     10964     11014     10967     10970     10971     10967     10970     10972
     10967     10970     10973     10968     10967     10969     10968     10967     10970
     10969     10967     10970     10970     10973     10974     10970     10973     10975
     10970     10973     10976     10971     10970     10972     10971     10970     10973
     10972     10970     10973     10973     10976     10977     10973     10976     10978
     10973     10976     10979     10974     10973     10975     10974     10973     10976
     10975     10973     10976     10976     10979     10980     10976     10979     10981
     10976     10979     10982     10977     10976     10978     10977     10976     10979
     10978     10976     10979     10979     10982     10983     10979     10982     10984
     10979     10982     10985     10980     10979     10981     10980     10979     10982
     10981     10979     10982     10982     10985     10986     10982     10985     10987
     10983     10982     10984     10983     10982     10985     10984     10982     10985
     10985     10987     10988     10985     10987     10989     10986     10985     10987
     10987     10989     10990     10987     10989     10991     10987     10989     10992
     10988     10987     10989     10989     10992     10993     10989     10992     10994
     10989     10992     10995     10990     10989     10991     10990     10989     10992
     10991     10989     10992     10992     10995     10996     10992     10995     10997
     10992     10995     10998     10993     10992     10994     10993     10992     10995
     10994     10992     10995     10995     10998     10999     10995     10998     11000
     10995     10998     11001     10996     10995     10997     10996     10995     10998
     10997     10995     10998     10998     11001     11002     10998     11001     11003
     10998     11001     11004     10999     10998     11000     10999     10998     11001
     11000     10998     11001     11001     11004     11005     11001     11004     11006
     11001     11004     11007     11002     11001     11003     11002     11001     11004
     11003     11001     11004     11004     11007     11008     11004     11007     11009
     11004     11007     11010     11005     11004     11006     11005     11004     11007
     11006     11004     11007     11007     11010     11011     11007     11010     11012
     11007     11010     11013     11008     11007     11009     11008     11007     11010
     11009     11007     11010     11011     11010     11012     11011     11010     11013
     11012     11010     11013     11014     11017     11018     11014     11017     11019
     11014     11017     11020     11015     11014     11016     11015     11014     11017
     11016     11014     11017     11017     11020     11021     11017     11020     11022
     11017     11020     11023     11018     11017     11019     11018     11017     11020
     11019     11017     11020     11020     11023     11024     11020     11023     11025
     11020     11023     11026     11021     11020     11022     11021     11020     11023
     11022     11020     11023     11023     11026     11027     11023     11026     11028
     11023     11026     11029     11024     11023     11025     11024     11023     11026
     11025     11023     11026     11026     11029     11030     11026     11029     11031
     11026     11029     11032     11027     11026     11028     11027     11026     11029
     11028     11026     11029     11029     11032     11033     11029     11032     11034
     11029     11032     11035     11030     11029     11031     11030     11029     11032
     11031     11029     11032     11032     11035     11036     11032     11035     11037
     11032     11035     11038     11033     11032     11034     11033     11032     11035
     11034     11032     11035     11035     11038     11039     11035     11038     11040
     11035     11038     11041     11036     11035     11037     11036     11035     11038
     11037     11035     11038     11038     11041     11042     11038     11041     11043
     11038     11041     11044     11039     11038     11040     11039     11038     11041
     11040     11038     11041     11041     11044     11045     11041     11044     11046
     11041     11044     11047     11042     11041     11043     11042     11041     11044
     11043     11041     11044     11044     11047     11048     11044     11047     11049
     11044     11047     11050     11045     11044     11046     11045     11044     11047
     11046     11044     11047     11047     11050     11051     11047     11050     11052
     11047     11050     11053     11048     11047     11049     11048     11047     11050
     11049     11047     11050     11050     11053     11054     11050     11053     11055
     11050     11053     11056     11051     11050     11052     11051     11050     11053
     11052     11050     11053     11054     11053     11055     11054     11053     11056
     11055     11053     11056     11057     11058     11059     11057     11058     11060
     11057     11058     11073     11057     11061     11062     11057     11061     11063
     11057     11061     11064     11057     11065     11066     11057     11065     11067
     11057     11065     11068     11057     11069     11070     11057     11069     11071
     11057     11069     11072     11058     11057     11061     11058     11057     11065
     11058     11057     11069     11058     11073     11074     11058     11073     11075
     11058     11073     11079     11059     11058     11060     11059     11058     11073
     11060     11058     11073     11061     11057     11065     11061     11057     11069
     11062     11061     11063     11062     11061     11064     11063     11061     11064
     11065     11057     11069     11066     11065     11067     11066     11065     11068
     11067     11065     11068     11070     11069     11071     11070     11069     11072
     11071     11069     11072     11073     11079     11076     11074     11073     11075
     11074     11073     11079     11075     11073     11079     11076     11080     11081
     11077     11076     11078     11077     11076     11079     11077     11076     11080
     11078     11076     11079     11078     11076     11080     11079     11076     11080
     11080     11081     11082     11080     11081     11083     11080     11081     11084
     11081     11084     11085     11081     11084     11086     11081     11084     11092
     11082     11081     11083     11082     11081     11084     11083     11081     11084
     11084     11086     11087     11084     11092     11093     11084     11092     11094
     11084     11092     11095     11085     11084     11086     11085     11084     11092
     11086     11084     11092     11086     11087     11088     11086     11087     11089
     11087     11089     11090     11087     11089     11091     11087     11089     11101
     11088     11087     11089     11089     11101     11102     11089     11101     11103
     11089     11101     11104     11090     11089     11091     11090     11089     11101
     11091     11089     11101     11092     11095     11096     11093     11092     11094
     11093     11092     11095     11094     11092     11095     11095     11096     11097
     11095     11096     11098     11096     11098     11099     11096     11098     11100
     11096     11098     11148     11097     11096     11098     11098     11148     11149
     11098     11148     11150     11098     11148     11151     11099     11098     11100
     11099     11098     11148     11100     11098     11148     11101     11104     11105
     11101     11104     11106     11101     11104     11107     11102     11101     11103
     11102     11101     11104     11103     11101     11104     11104     11107     11108
     11104     11107     11109     11104     11107     11110     11105     11104     11106
     11105     11104     11107     11106     11104     11107     11107     11110     11111
     11107     11110     11112     11107     11110     11113     11108     11107     11109
     11108     11107     11110     11109     11107     11110     11110     11113     11114
     11110     11113     11115     11110     11113     11116     11111     11110     11112
     11111     11110     11113     11112     11110     11113     11113     11116     11117
     11113     11116     11118     11113     11116     11119     11114     11113     11115
     11114     11113     11116     11115     11113     11116     11116     11119     11120
     11116     11119     11121     11117     11116     11118     11117     11116     11119
     11118     11116     11119     11119     11121     11122     11119     11121     11123
     11120     11119     11121     11121     11123     11124     11121     11123     11125
     11121     11123     11126     11122     11121     11123     11123     11126     11127
     11123     11126     11128     11123     11126     11129     11124     11123     11125
     11124     11123     11126     11125     11123     11126     11126     11129     11130
     11126     11129     11131     11126     11129     11132     11127     11126     11128
     11127     11126     11129     11128     11126     11129     11129     11132     11133
     11129     11132     11134     11129     11132     11135     11130     11129     11131
     11130     11129     11132     11131     11129     11132     11132     11135     11136
     11132     11135     11137     11132     11135     11138     11133     11132     11134
     11133     11132     11135     11134     11132     11135     11135     11138     11139
     11135     11138     11140     11135     11138     11141     11136     11135     11137
     11136     11135     11138     11137     11135     11138     11138     11141     11142
     11138     11141     11143     11138     11141     11144     11139     11138     11140
     11139     11138     11141     11140     11138     11141     11141     11144     11145
     11141     11144     11146     11141     11144     11147     11142     11141     11143
     11142     11141     11144     11143     11141     11144     11145     11144     11146
     11145     11144     11147     11146     11144     11147     11148     11151     11152
     11148     11151     11153     11148     11151     11154     11149     11148     11150
     11149     11148     11151     11150     11148     11151     11151     11154     11155
     11151     11154     11156     11151     11154     11157     11152     11151     11153
     11152     11151     11154     11153     11151     11154     11154     11157     11158
     11154     11157     11159     11154     11157     11160     11155     11154     11156
     11155     11154     11157     11156     11154     11157     11157     11160     11161
     11157     11160     11162     11157     11160     11163     11158     11157     11159
     11158     11157     11160     11159     11157     11160     11160     11163     11164
     11160     11163     11165     11160     11163     11166     11161     11160     11162
     11161     11160     11163     11162     11160     11163     11163     11166     11167
     11163     11166     11168     11163     11166     11169     11164     11163     11165
     11164     11163     11166     11165     11163     11166     11166     11169     11170
     11166     11169     11171     11166     11169     11172     11167     11166     11168
     11167     11166     11169     11168     11166     11169     11169     11172     11173
     11169     11172     11174     11169     11172     11175     11170     11169     11171
     11170     11169     11172     11171     11169     11172     11172     11175     11176
     11172     11175     11177     11172     11175     11178     11173     11172     11174
     11173     11172     11175     11174     11172     11175     11175     11178     11179
     11175     11178     11180     11175     11178     11181     11176     11175     11177
     11176     11175     11178     11177     11175     11178     11178     11181     11182
     11178     11181     11183     11178     11181     11184     11179     11178     11180
     11179     11178     11181     11180     11178     11181     11181     11184     11185
     11181     11184     11186     11181     11184     11187     11182     11181     11183
     11182     11181     11184     11183     11181     11184     11184     11187     11188
     11184     11187     11189     11184     11187     11190     11185     11184     11186
     11185     11184     11187     11186     11184     11187     11188     11187     11189
     11188     11187     11190     11189     11187     11190     11191     11192     11193
     11191     11192     11194     11191     11192     11207     11191     11195     11196
     11191     11195     11197     11191     11195     11198     11191     11199     11200
     11191     11199     11201     11191     11199     11202     11191     11203     11204
     11191     11203     11205     11191     11203     11206     11192     11191     11195
     11192     11191     11199     11192     11191     11203     11192     11207     11208
     11192     11207     11209     11192     11207     11213     11193     11192     11194
     11193     11192     11207     11194     11192     11207     11195     11191     11199
     11195     11191     11203     11196     11195     11197     11196     11195     11198
     11197     11195     11198     11199     11191     11203     11200     11199     11201
     11200     11199     11202     11201     11199     11202     11204     11203     11205
     11204     11203     11206     11205     11203     11206     11207     11213     11210
     11208     11207     11209     11208     11207     11213     11209     11207     11213
     11210     11214     11215     11211     11210     11212     11211     11210     11213
     11211     11210     11214     11212     11210     11213     11212     11210     11214
     11213     11210     11214     11214     11215     11216     11214     11215     11217
     11214     11215     11218     11215     11218     11219     11215     11218     11220
     11215     11218     11226     11216     11215     11217     11216     11215     11218
     11217     11215     11218     11218     11220     11221     11218     11226     11227
     11218     11226     11228     11218     11226     11229     11219     11218     11220
     11219     11218     11226     11220     11218     11226     11220     11221     11222
     11220     11221     11223     11221     11223     11224     11221     11223     11225
     11221     11223     11235     11222     11221     11223     11223     11235     11236
     11223     11235     11237     11223     11235     11238     11224     11223     11225
     11224     11223     11235     11225     11223     11235     11226     11229     11230
     11227     11226     11228     11227     11226     11229     11228     11226     11229
     11229     11230     11231     11229     11230     11232     11230     11232     11233
     11230     11232     11234     11230     11232     11282     11231     11230     11232
     11232     11282     11283     11232     11282     11284     11232     11282     11285
     11233     11232     11234     11233     11232     11282     11234     11232     11282
     11235     11238     11239     11235     11238     11240     11235     11238     11241
     11236     11235     11237     11236     11235     11238     11237     11235     11238
     11238     11241     11242     11238     11241     11243     11238     11241     11244
     11239     11238     11240     11239     11238     11241     11240     11238     11241
     11241     11244     11245     11241     11244     11246     11241     11244     11247
     11242     11241     11243     11242     11241     11244     11243     11241     11244
     11244     11247     11248     11244     11247     11249     11244     11247     11250
     11245     11244     11246     11245     11244     11247     11246     11244     11247
     11247     11250     11251     11247     11250     11252     11247     11250     11253
     11248     11247     11249     11248     11247     11250     11249     11247     11250
     11250     11253     11254     11250     11253     11255     11251     11250     11252
     11251     11250     11253     11252     11250     11253     11253     11255     11256
     11253     11255     11257     11254     11253     11255     11255     11257     11258
     11255     11257     11259     11255     11257     11260     11256     11255     11257
     11257     11260     11261     11257     11260     11262     11257     11260     11263
     11258     11257     11259     11258     11257     11260     11259     11257     11260
     11260     11263     11264     11260     11263     11265     11260     11263     11266
     11261     11260     11262     11261     11260     11263     11262     11260     11263
     11263     11266     11267     11263     11266     11268     11263     11266     11269
     11264     11263     11265     11264     11263     11266     11265     11263     11266
     11266     11269     11270     11266     11269     11271     11266     11269     11272
     11267     11266     11268     11267     11266     11269     11268     11266     11269
     11269     11272     11273     11269     11272     11274     11269     11272     11275
     11270     11269     11271     11270     11269     11272     11271     11269     11272
     11272     11275     11276     11272     11275     11277     11272     11275     11278
     11273     11272     11274     11273     11272     11275     11274     11272     11275
     11275     11278     11279     11275     11278     11280     11275     11278     11281
     11276     11275     11277     11276     11275     11278     11277     11275     11278
     11279     11278     11280     11279     11278     11281     11280     11278     11281
     11282     11285     11286     11282     11285     11287     11282     11285     11288
     11283     11282     11284     11283     11282     11285     11284     11282     11285
     11285     11288     11289     11285     11288     11290     11285     11288     11291
     11286     11285     11287     11286     11285     11288     11287     11285     11288
     11288     11291     11292     11288     11291     11293     11288     11291     11294
     11289     11288     11290     11289     11288     11291     11290     11288     11291
     11291     11294     11295     11291     11294     11296     11291     11294     11297
     11292     11291     11293     11292     11291     11294     11293     11291     11294
     11294     11297     11298     11294     11297     11299     11294     11297     11300
     11295     11294     11296     11295     11294     11297     11296     11294     11297
     11297     11300     11301     11297     11300     11302     11297     11300     11303
     11298     11297     11299     11298     11297     11300     11299     11297     11300
     11300     11303     11304     11300     11303     11305     11300     11303     11306
     11301     11300     11302     11301     11300     11303     11302     11300     11303
     11303     11306     11307     11303     11306     11308     11303     11306     11309
     11304     11303     11305     11304     11303     11306     11305     11303     11306
     11306     11309     11310     11306     11309     11311     11306     11309     11312
     11307     11306     11308     11307     11306     11309     11308     11306     11309
     11309     11312     11313     11309     11312     11314     11309     11312     11315
     11310     11309     11311     11310     11309     11312     11311     11309     11312
     11312     11315     11316     11312     11315     11317     11312     11315     11318
     11313     11312     11314     11313     11312     11315     11314     11312     11315
     11315     11318     11319     11315     11318     11320     11315     11318     11321
     11316     11315     11317     11316     11315     11318     11317     11315     11318
     11318     11321     11322     11318     11321     11323     11318     11321     11324
     11319     11318     11320     11319     11318     11321     11320     11318     11321
     11322     11321     11323     11322     11321     11324     11323     11321     11324
     11325     11326     11327     11325     11326     11328     11325     11326     11341
     11325     11329     11330     11325     11329     11331     11325     11329     11332
     11325     11333     11334     11325     11333     11335     11325     11333     11336
     11325     11337     11338     11325     11337     11339     11325     11337     11340
     11326     11325     11329     11326     11325     11333     11326     11325     11337
     11326     11341     11342     11326     11341     11343     11326     11341     11347
     11327     11326     11328     11327     11326     11341     11328     11326     11341
     11329     11325     11333     11329     11325     11337     11330     11329     11331
     11330     11329     11332     11331     11329     11332     11333     11325     11337
     11334     11333     11335     11334     11333     11336     11335     11333     11336
     11338     11337     11339     11338     11337     11340     11339     11337     11340
     11341     11347     11344     11342     11341     11343     11342     11341     11347
     11343     11341     11347     11344     11348     11349     11345     11344     11346
     11345     11344     11347     11345     11344     11348     11346     11344     11347
     11346     11344     11348     11347     11344     11348     11348     11349     11350
     11348     11349     11351     11348     11349     11352     11349     11352     11353
     11349     11352     11354     11349     11352     11360     11350     11349     11351
     11350     11349     11352     11351     11349     11352     11352     11354     11355
     11352     11360     11361     11352     11360     11362     11352     11360     11363
     11353     11352     11354     11353     11352     11360     11354     11352     11360
     11354     11355     11356     11354     11355     11357     11355     11357     11358
     11355     11357     11359     11355     11357     11369     11356     11355     11357
     11357     11369     11370     11357     11369     11371     11357     11369     11372
     11358     11357     11359     11358     11357     11369     11359     11357     11369
     11360     11363     11364     11361     11360     11362     11361     11360     11363
     11362     11360     11363     11363     11364     11365     11363     11364     11366
     11364     11366     11367     11364     11366     11368     11364     11366     11416
     11365     11364     11366     11366     11416     11417     11366     11416     11418
     11366     11416     11419     11367     11366     11368     11367     11366     11416
     11368     11366     11416     11369     11372     11373     11369     11372     11374
     11369     11372     11375     11370     11369     11371     11370     11369     11372
     11371     11369     11372     11372     11375     11376     11372     11375     11377
     11372     11375     11378     11373     11372     11374     11373     11372     11375
     11374     11372     11375     11375     11378     11379     11375     11378     11380
     11375     11378     11381     11376     11375     11377     11376     11375     11378
     11377     11375     11378     11378     11381     11382     11378     11381     11383
     11378     11381     11384     11379     11378     11380     11379     11378     11381
     11380     11378     11381     11381     11384     11385     11381     11384     11386
     11381     11384     11387     11382     11381     11383     11382     11381     11384
     11383     11381     11384     11384     11387     11388     11384     11387     11389
     11385     11384     11386     11385     11384     11387     11386     11384     11387
     11387     11389     11390     11387     11389     11391     11388     11387     11389
     11389     11391     11392     11389     11391     11393     11389     11391     11394
     11390     11389     11391     11391     11394     11395     11391     11394     11396
     11391     11394     11397     11392     11391     11393     11392     11391     11394
     11393     11391     11394     11394     11397     11398     11394     11397     11399
     11394     11397     11400     11395     11394     11396     11395     11394     11397
     11396     11394     11397     11397     11400     11401     11397     11400     11402
     11397     11400     11403     11398     11397     11399     11398     11397     11400
     11399     11397     11400     11400     11403     11404     11400     11403     11405
     11400     11403     11406     11401     11400     11402     11401     11400     11403
     11402     11400     11403     11403     11406     11407     11403     11406     11408
     11403     11406     11409     11404     11403     11405     11404     11403     11406
     11405     11403     11406     11406     11409     11410     11406     11409     11411
     11406     11409     11412     11407     11406     11408     11407     11406     11409
     11408     11406     11409     11409     11412     11413     11409     11412     11414
     11409     11412     11415     11410     11409     11411     11410     11409     11412
     11411     11409     11412     11413     11412     11414     11413     11412     11415
     11414     11412     11415     11416     11419     11420     11416     11419     11421
     11416     11419     11422     11417     11416     11418     11417     11416     11419
     11418     11416     11419     11419     11422     11423     11419     11422     11424
     11419     11422     11425     11420     11419     11421     11420     11419     11422
     11421     11419     11422     11422     11425     11426     11422     11425     11427
     11422     11425     11428     11423     11422     11424     11423     11422     11425
     11424     11422     11425     11425     11428     11429     11425     11428     11430
     11425     11428     11431     11426     11425     11427     11426     11425     11428
     11427     11425     11428     11428     11431     11432     11428     11431     11433
     11428     11431     11434     11429     11428     11430     11429     11428     11431
     11430     11428     11431     11431     11434     11435     11431     11434     11436
     11431     11434     11437     11432     11431     11433     11432     11431     11434
     11433     11431     11434     11434     11437     11438     11434     11437     11439
     11434     11437     11440     11435     11434     11436     11435     11434     11437
     11436     11434     11437     11437     11440     11441     11437     11440     11442
     11437     11440     11443     11438     11437     11439     11438     11437     11440
     11439     11437     11440     11440     11443     11444     11440     11443     11445
     11440     11443     11446     11441     11440     11442     11441     11440     11443
     11442     11440     11443     11443     11446     11447     11443     11446     11448
     11443     11446     11449     11444     11443     11445     11444     11443     11446
     11445     11443     11446     11446     11449     11450     11446     11449     11451
     11446     11449     11452     11447     11446     11448     11447     11446     11449
     11448     11446     11449     11449     11452     11453     11449     11452     11454
     11449     11452     11455     11450     11449     11451     11450     11449     11452
     11451     11449     11452     11452     11455     11456     11452     11455     11457
     11452     11455     11458     11453     11452     11454     11453     11452     11455
     11454     11452     11455     11456     11455     11457     11456     11455     11458
     11457     11455     11458     11459     11460     11461     11459     11460     11462
     11459     11460     11475     11459     11463     11464     11459     11463     11465
     11459     11463     11466     11459     11467     11468     11459     11467     11469
     11459     11467     11470     11459     11471     11472     11459     11471     11473
     11459     11471     11474     11460     11459     11463     11460     11459     11467
     11460     11459     11471     11460     11475     11476     11460     11475     11477
     11460     11475     11481     11461     11460     11462     11461     11460     11475
     11462     11460     11475     11463     11459     11467     11463     11459     11471
     11464     11463     11465     11464     11463     11466     11465     11463     11466
     11467     11459     11471     11468     11467     11469     11468     11467     11470
     11469     11467     11470     11472     11471     11473     11472     11471     11474
     11473     11471     11474     11475     11481     11478     11476     11475     11477
     11476     11475     11481     11477     11475     11481     11478     11482     11483
     11479     11478     11480     11479     11478     11481     11479     11478     11482
     11480     11478     11481     11480     11478     11482     11481     11478     11482
     11482     11483     11484     11482     11483     11485     11482     11483     11486
     11483     11486     11487     11483     11486     11488     11483     11486     11494
     11484     11483     11485     11484     11483     11486     11485     11483     11486
     11486     11488     11489     11486     11494     11495     11486     11494     11496
     11486     11494     11497     11487     11486     11488     11487     11486     11494
     11488     11486     11494     11488     11489     11490     11488     11489     11491
     11489     11491     11492     11489     11491     11493     11489     11491     11503
     11490     11489     11491     11491     11503     11504     11491     11503     11505
     11491     11503     11506     11492     11491     11493     11492     11491     11503
     11493     11491     11503     11494     11497     11498     11495     11494     11496
     11495     11494     11497     11496     11494     11497     11497     11498     11499
     11497     11498     11500     11498     11500     11501     11498     11500     11502
     11498     11500     11550     11499     11498     11500     11500     11550     11551
     11500     11550     11552     11500     11550     11553     11501     11500     11502
     11501     11500     11550     11502     11500     11550     11503     11506     11507
     11503     11506     11508     11503     11506     11509     11504     11503     11505
     11504     11503     11506     11505     11503     11506     11506     11509     11510
     11506     11509     11511     11506     11509     11512     11507     11506     11508
     11507     11506     11509     11508     11506     11509     11509     11512     11513
     11509     11512     11514     11509     11512     11515     11510     11509     11511
     11510     11509     11512     11511     11509     11512     11512     11515     11516
     11512     11515     11517     11512     11515     11518     11513     11512     11514
     11513     11512     11515     11514     11512     11515     11515     11518     11519
     11515     11518     11520     11515     11518     11521     11516     11515     11517
     11516     11515     11518     11517     11515     11518     11518     11521     11522
     11518     11521     11523     11519     11518     11520     11519     11518     11521
     11520     11518     11521     11521     11523     11524     11521     11523     11525
     11522     11521     11523     11523     11525     11526     11523     11525     11527
     11523     11525     11528     11524     11523     11525     11525     11528     11529
     11525     11528     11530     11525     11528     11531     11526     11525     11527
     11526     11525     11528     11527     11525     11528     11528     11531     11532
     11528     11531     11533     11528     11531     11534     11529     11528     11530
     11529     11528     11531     11530     11528     11531     11531     11534     11535
     11531     11534     11536     11531     11534     11537     11532     11531     11533
     11532     11531     11534     11533     11531     11534     11534     11537     11538
     11534     11537     11539     11534     11537     11540     11535     11534     11536
     11535     11534     11537     11536     11534     11537     11537     11540     11541
     11537     11540     11542     11537     11540     11543     11538     11537     11539
     11538     11537     11540     11539     11537     11540     11540     11543     11544
     11540     11543     11545     11540     11543     11546     11541     11540     11542
     11541     11540     11543     11542     11540     11543     11543     11546     11547
     11543     11546     11548     11543     11546     11549     11544     11543     11545
     11544     11543     11546     11545     11543     11546     11547     11546     11548
     11547     11546     11549     11548     11546     11549     11550     11553     11554
     11550     11553     11555     11550     11553     11556     11551     11550     11552
     11551     11550     11553     11552     11550     11553     11553     11556     11557
     11553     11556     11558     11553     11556     11559     11554     11553     11555
     11554     11553     11556     11555     11553     11556     11556     11559     11560
     11556     11559     11561     11556     11559     11562     11557     11556     11558
     11557     11556     11559     11558     11556     11559     11559     11562     11563
     11559     11562     11564     11559     11562     11565     11560     11559     11561
     11560     11559     11562     11561     11559     11562     11562     11565     11566
     11562     11565     11567     11562     11565     11568     11563     11562     11564
     11563     11562     11565     11564     11562     11565     11565     11568     11569
     11565     11568     11570     11565     11568     11571     11566     11565     11567
     11566     11565     11568     11567     11565     11568     11568     11571     11572
     11568     11571     11573     11568     11571     11574     11569     11568     11570
     11569     11568     11571     11570     11568     11571     11571     11574     11575
     11571     11574     11576     11571     11574     11577     11572     11571     11573
     11572     11571     11574     11573     11571     11574     11574     11577     11578
     11574     11577     11579     11574     11577     11580     11575     11574     11576
     11575     11574     11577     11576     11574     11577     11577     11580     11581
     11577     11580     11582     11577     11580     11583     11578     11577     11579
     11578     11577     11580     11579     11577     11580     11580     11583     11584
     11580     11583     11585     11580     11583     11586     11581     11580     11582
     11581     11580     11583     11582     11580     11583     11583     11586     11587
     11583     11586     11588     11583     11586     11589     11584     11583     11585
     11584     11583     11586     11585     11583     11586     11586     11589     11590
     11586     11589     11591     11586     11589     11592     11587     11586     11588
     11587     11586     11589     11588     11586     11589     11590     11589     11591
     11590     11589     11592     11591     11589     11592     11593     11594     11595
     11593     11594     11596     11593     11594     11609     11593     11597     11598
     11593     11597     11599     11593     11597     11600     11593     11601     11602
     11593     11601     11603     11593     11601     11604     11593     11605     11606
     11593     11605     11607     11593     11605     11608     11594     11593     11597
     11594     11593     11601     11594     11593     11605     11594     11609     11610
     11594     11609     11611     11594     11609     11615     11595     11594     11596
     11595     11594     11609     11596     11594     11609     11597     11593     11601
     11597     11593     11605     11598     11597     11599     11598     11597     11600
     11599     11597     11600     11601     11593     11605     11602     11601     11603
     11602     11601     11604     11603     11601     11604     11606     11605     11607
     11606     11605     11608     11607     11605     11608     11609     11615     11612
     11610     11609     11611     11610     11609     11615     11611     11609     11615
     11612     11616     11617     11613     11612     11614     11613     11612     11615
     11613     11612     11616     11614     11612     11615     11614     11612     11616
     11615     11612     11616     11616     11617     11618     11616     11617     11619
     11616     11617     11620     11617     11620     11621     11617     11620     11622
     11617     11620     11628     11618     11617     11619     11618     11617     11620
     11619     11617     11620     11620     11622     11623     11620     11628     11629
     11620     11628     11630     11620     11628     11631     11621     11620     11622
     11621     11620     11628     11622     11620     11628     11622     11623     11624
     11622     11623     11625     11623     11625     11626     11623     11625     11627
     11623     11625     11637     11624     11623     11625     11625     11637     11638
     11625     11637     11639     11625     11637     11640     11626     11625     11627
     11626     11625     11637     11627     11625     11637     11628     11631     11632
     11629     11628     11630     11629     11628     11631     11630     11628     11631
     11631     11632     11633     11631     11632     11634     11632     11634     11635
     11632     11634     11636     11632     11634     11684     11633     11632     11634
     11634     11684     11685     11634     11684     11686     11634     11684     11687
     11635     11634     11636     11635     11634     11684     11636     11634     11684
     11637     11640     11641     11637     11640     11642     11637     11640     11643
     11638     11637     11639     11638     11637     11640     11639     11637     11640
     11640     11643     11644     11640     11643     11645     11640     11643     11646
     11641     11640     11642     11641     11640     11643     11642     11640     11643
     11643     11646     11647     11643     11646     11648     11643     11646     11649
     11644     11643     11645     11644     11643     11646     11645     11643     11646
     11646     11649     11650     11646     11649     11651     11646     11649     11652
     11647     11646     11648     11647     11646     11649     11648     11646     11649
     11649     11652     11653     11649     11652     11654     11649     11652     11655
     11650     11649     11651     11650     11649     11652     11651     11649     11652
     11652     11655     11656     11652     11655     11657     11653     11652     11654
     11653     11652     11655     11654     11652     11655     11655     11657     11658
     11655     11657     11659     11656     11655     11657     11657     11659     11660
     11657     11659     11661     11657     11659     11662     11658     11657     11659
     11659     11662     11663     11659     11662     11664     11659     11662     11665
     11660     11659     11661     11660     11659     11662     11661     11659     11662
     11662     11665     11666     11662     11665     11667     11662     11665     11668
     11663     11662     11664     11663     11662     11665     11664     11662     11665
     11665     11668     11669     11665     11668     11670     11665     11668     11671
     11666     11665     11667     11666     11665     11668     11667     11665     11668
     11668     11671     11672     11668     11671     11673     11668     11671     11674
     11669     11668     11670     11669     11668     11671     11670     11668     11671
     11671     11674     11675     11671     11674     11676     11671     11674     11677
     11672     11671     11673     11672     11671     11674     11673     11671     11674
     11674     11677     11678     11674     11677     11679     11674     11677     11680
     11675     11674     11676     11675     11674     11677     11676     11674     11677
     11677     11680     11681     11677     11680     11682     11677     11680     11683
     11678     11677     11679     11678     11677     11680     11679     11677     11680
     11681     11680     11682     11681     11680     11683     11682     11680     11683
     11684     11687     11688     11684     11687     11689     11684     11687     11690
     11685     11684     11686     11685     11684     11687     11686     11684     11687
     11687     11690     11691     11687     11690     11692     11687     11690     11693
     11688     11687     11689     11688     11687     11690     11689     11687     11690
     11690     11693     11694     11690     11693     11695     11690     11693     11696
     11691     11690     11692     11691     11690     11693     11692     11690     11693
     11693     11696     11697     11693     11696     11698     11693     11696     11699
     11694     11693     11695     11694     11693     11696     11695     11693     11696
     11696     11699     11700     11696     11699     11701     11696     11699     11702
     11697     11696     11698     11697     11696     11699     11698     11696     11699
     11699     11702     11703     11699     11702     11704     11699     11702     11705
     11700     11699     11701     11700     11699     11702     11701     11699     11702
     11702     11705     11706     11702     11705     11707     11702     11705     11708
     11703     11702     11704     11703     11702     11705     11704     11702     11705
     11705     11708     11709     11705     11708     11710     11705     11708     11711
     11706     11705     11707     11706     11705     11708     11707     11705     11708
     11708     11711     11712     11708     11711     11713     11708     11711     11714
     11709     11708     11710     11709     11708     11711     11710     11708     11711
     11711     11714     11715     11711     11714     11716     11711     11714     11717
     11712     11711     11713     11712     11711     11714     11713     11711     11714
     11714     11717     11718     11714     11717     11719     11714     11717     11720
     11715     11714     11716     11715     11714     11717     11716     11714     11717
     11717     11720     11721     11717     11720     11722     11717     11720     11723
     11718     11717     11719     11718     11717     11720     11719     11717     11720
     11720     11723     11724     11720     11723     11725     11720     11723     11726
     11721     11720     11722     11721     11720     11723     11722     11720     11723
     11724     11723     11725     11724     11723     11726     11725     11723     11726
     11727     11728     11729     11727     11728     11730     11727     11728     11743
     11727     11731     11732     11727     11731     11733     11727     11731     11734
     11727     11735     11736     11727     11735     11737     11727     11735     11738
     11727     11739     11740     11727     11739     11741     11727     11739     11742
     11728     11727     11731     11728     11727     11735     11728     11727     11739
     11728     11743     11744     11728     11743     11745     11728     11743     11749
     11729     11728     11730     11729     11728     11743     11730     11728     11743
     11731     11727     11735     11731     11727     11739     11732     11731     11733
     11732     11731     11734     11733     11731     11734     11735     11727     11739
     11736     11735     11737     11736     11735     11738     11737     11735     11738
     11740     11739     11741     11740     11739     11742     11741     11739     11742
     11743     11749     11746     11744     11743     11745     11744     11743     11749
     11745     11743     11749     11746     11750     11751     11747     11746     11748
     11747     11746     11749     11747     11746     11750     11748     11746     11749
     11748     11746     11750     11749     11746     11750     11750     11751     11752
     11750     11751     11753     11750     11751     11754     11751     11754     11755
     11751     11754     11756     11751     11754     11762     11752     11751     11753
     11752     11751     11754     11753     11751     11754     11754     11756     11757
     11754     11762     11763     11754     11762     11764     11754     11762     11765
     11755     11754     11756     11755     11754     11762     11756     11754     11762
     11756     11757     11758     11756     11757     11759     11757     11759     11760
     11757     11759     11761     11757     11759     11771     11758     11757     11759
     11759     11771     11772     11759     11771     11773     11759     11771     11774
     11760     11759     11761     11760     11759     11771     11761     11759     11771
     11762     11765     11766     11763     11762     11764     11763     11762     11765
     11764     11762     11765     11765     11766     11767     11765     11766     11768
     11766     11768     11769     11766     11768     11770     11766     11768     11818
     11767     11766     11768     11768     11818     11819     11768     11818     11820
     11768     11818     11821     11769     11768     11770     11769     11768     11818
     11770     11768     11818     11771     11774     11775     11771     11774     11776
     11771     11774     11777     11772     11771     11773     11772     11771     11774
     11773     11771     11774     11774     11777     11778     11774     11777     11779
     11774     11777     11780     11775     11774     11776     11775     11774     11777
     11776     11774     11777     11777     11780     11781     11777     11780     11782
     11777     11780     11783     11778     11777     11779     11778     11777     11780
     11779     11777     11780     11780     11783     11784     11780     11783     11785
     11780     11783     11786     11781     11780     11782     11781     11780     11783
     11782     11780     11783     11783     11786     11787     11783     11786     11788
     11783     11786     11789     11784     11783     11785     11784     11783     11786
     11785     11783     11786     11786     11789     11790     11786     11789     11791
     11787     11786     11788     11787     11786     11789     11788     11786     11789
     11789     11791     11792     11789     11791     11793     11790     11789     11791
     11791     11793     11794     11791     11793     11795     11791     11793     11796
     11792     11791     11793     11793     11796     11797     11793     11796     11798
     11793     11796     11799     11794     11793     11795     11794     11793     11796
     11795     11793     11796     11796     11799     11800     11796     11799     11801
     11796     11799     11802     11797     11796     11798     11797     11796     11799
     11798     11796     11799     11799     11802     11803     11799     11802     11804
     11799     11802     11805     11800     11799     11801     11800     11799     11802
     11801     11799     11802     11802     11805     11806     11802     11805     11807
     11802     11805     11808     11803     11802     11804     11803     11802     11805
     11804     11802     11805     11805     11808     11809     11805     11808     11810
     11805     11808     11811     11806     11805     11807     11806     11805     11808
     11807     11805     11808     11808     11811     11812     11808     11811     11813
     11808     11811     11814     11809     11808     11810     11809     11808     11811
     11810     11808     11811     11811     11814     11815     11811     11814     11816
     11811     11814     11817     11812     11811     11813     11812     11811     11814
     11813     11811     11814     11815     11814     11816     11815     11814     11817
     11816     11814     11817     11818     11821     11822     11818     11821     11823
     11818     11821     11824     11819     11818     11820     11819     11818     11821
     11820     11818     11821     11821     11824     11825     11821     11824     11826
     11821     11824     11827     11822     11821     11823     11822     11821     11824
     11823     11821     11824     11824     11827     11828     11824     11827     11829
     11824     11827     11830     11825     11824     11826     11825     11824     11827
     11826     11824     11827     11827     11830     11831     11827     11830     11832
     11827     11830     11833     11828     11827     11829     11828     11827     11830
     11829     11827     11830     11830     11833     11834     11830     11833     11835
     11830     11833     11836     11831     11830     11832     11831     11830     11833
     11832     11830     11833     11833     11836     11837     11833     11836     11838
     11833     11836     11839     11834     11833     11835     11834     11833     11836
     11835     11833     11836     11836     11839     11840     11836     11839     11841
     11836     11839     11842     11837     11836     11838     11837     11836     11839
     11838     11836     11839     11839     11842     11843     11839     11842     11844
     11839     11842     11845     11840     11839     11841     11840     11839     11842
     11841     11839     11842     11842     11845     11846     11842     11845     11847
     11842     11845     11848     11843     11842     11844     11843     11842     11845
     11844     11842     11845     11845     11848     11849     11845     11848     11850
     11845     11848     11851     11846     11845     11847     11846     11845     11848
     11847     11845     11848     11848     11851     11852     11848     11851     11853
     11848     11851     11854     11849     11848     11850     11849     11848     11851
     11850     11848     11851     11851     11854     11855     11851     11854     11856
     11851     11854     11857     11852     11851     11853     11852     11851     11854
     11853     11851     11854     11854     11857     11858     11854     11857     11859
     11854     11857     11860     11855     11854     11856     11855     11854     11857
     11856     11854     11857     11858     11857     11859     11858     11857     11860
     11859     11857     11860     11861     11862     11863     11861     11862     11864
     11861     11862     11877     11861     11865     11866     11861     11865     11867
     11861     11865     11868     11861     11869     11870     11861     11869     11871
     11861     11869     11872     11861     11873     11874     11861     11873     11875
     11861     11873     11876     11862     11861     11865     11862     11861     11869
     11862     11861     11873     11862     11877     11878     11862     11877     11879
     11862     11877     11883     11863     11862     11864     11863     11862     11877
     11864     11862     11877     11865     11861     11869     11865     11861     11873
     11866     11865     11867     11866     11865     11868     11867     11865     11868
     11869     11861     11873     11870     11869     11871     11870     11869     11872
     11871     11869     11872     11874     11873     11875     11874     11873     11876
     11875     11873     11876     11877     11883     11880     11878     11877     11879
     11878     11877     11883     11879     11877     11883     11880     11884     11885
     11881     11880     11882     11881     11880     11883     11881     11880     11884
     11882     11880     11883     11882     11880     11884     11883     11880     11884
     11884     11885     11886     11884     11885     11887     11884     11885     11888
     11885     11888     11889     11885     11888     11890     11885     11888     11896
     11886     11885     11887     11886     11885     11888     11887     11885     11888
     11888     11890     11891     11888     11896     11897     11888     11896     11898
     11888     11896     11899     11889     11888     11890     11889     11888     11896
     11890     11888     11896     11890     11891     11892     11890     11891     11893
     11891     11893     11894     11891     11893     11895     11891     11893     11905
     11892     11891     11893     11893     11905     11906     11893     11905     11907
     11893     11905     11908     11894     11893     11895     11894     11893     11905
     11895     11893     11905     11896     11899     11900     11897     11896     11898
     11897     11896     11899     11898     11896     11899     11899     11900     11901
     11899     11900     11902     11900     11902     11903     11900     11902     11904
     11900     11902     11952     11901     11900     11902     11902     11952     11953
     11902     11952     11954     11902     11952     11955     11903     11902     11904
     11903     11902     11952     11904     11902     11952     11905     11908     11909
     11905     11908     11910     11905     11908     11911     11906     11905     11907
     11906     11905     11908     11907     11905     11908     11908     11911     11912
     11908     11911     11913     11908     11911     11914     11909     11908     11910
     11909     11908     11911     11910     11908     11911     11911     11914     11915
     11911     11914     11916     11911     11914     11917     11912     11911     11913
     11912     11911     11914     11913     11911     11914     11914     11917     11918
     11914     11917     11919     11914     11917     11920     11915     11914     11916
     11915     11914     11917     11916     11914     11917     11917     11920     11921
     11917     11920     11922     11917     11920     11923     11918     11917     11919
     11918     11917     11920     11919     11917     11920     11920     11923     11924
     11920     11923     11925     11921     11920     11922     11921     11920     11923
     11922     11920     11923     11923     11925     11926     11923     11925     11927
     11924     11923     11925     11925     11927     11928     11925     11927     11929
     11925     11927     11930     11926     11925     11927     11927     11930     11931
     11927     11930     11932     11927     11930     11933     11928     11927     11929
     11928     11927     11930     11929     11927     11930     11930     11933     11934
     11930     11933     11935     11930     11933     11936     11931     11930     11932
     11931     11930     11933     11932     11930     11933     11933     11936     11937
     11933     11936     11938     11933     11936     11939     11934     11933     11935
     11934     11933     11936     11935     11933     11936     11936     11939     11940
     11936     11939     11941     11936     11939     11942     11937     11936     11938
     11937     11936     11939     11938     11936     11939     11939     11942     11943
     11939     11942     11944     11939     11942     11945     11940     11939     11941
     11940     11939     11942     11941     11939     11942     11942     11945     11946
     11942     11945     11947     11942     11945     11948     11943     11942     11944
     11943     11942     11945     11944     11942     11945     11945     11948     11949
     11945     11948     11950     11945     11948     11951     11946     11945     11947
     11946     11945     11948     11947     11945     11948     11949     11948     11950
     11949     11948     11951     11950     11948     11951     11952     11955     11956
     11952     11955     11957     11952     11955     11958     11953     11952     11954
     11953     11952     11955     11954     11952     11955     11955     11958     11959
     11955     11958     11960     11955     11958     11961     11956     11955     11957
     11956     11955     11958     11957     11955     11958     11958     11961     11962
     11958     11961     11963     11958     11961     11964     11959     11958     11960
     11959     11958     11961     11960     11958     11961     11961     11964     11965
     11961     11964     11966     11961     11964     11967     11962     11961     11963
     11962     11961     11964     11963     11961     11964     11964     11967     11968
     11964     11967     11969     11964     11967     11970     11965     11964     11966
     11965     11964     11967     11966     11964     11967     11967     11970     11971
     11967     11970     11972     11967     11970     11973     11968     11967     11969
     11968     11967     11970     11969     11967     11970     11970     11973     11974
     11970     11973     11975     11970     11973     11976     11971     11970     11972
     11971     11970     11973     11972     11970     11973     11973     11976     11977
     11973     11976     11978     11973     11976     11979     11974     11973     11975
     11974     11973     11976     11975     11973     11976     11976     11979     11980
     11976     11979     11981     11976     11979     11982     11977     11976     11978
     11977     11976     11979     11978     11976     11979     11979     11982     11983
     11979     11982     11984     11979     11982     11985     11980     11979     11981
     11980     11979     11982     11981     11979     11982     11982     11985     11986
     11982     11985     11987     11982     11985     11988     11983     11982     11984
     11983     11982     11985     11984     11982     11985     11985     11988     11989
     11985     11988     11990     11985     11988     11991     11986     11985     11987
     11986     11985     11988     11987     11985     11988     11988     11991     11992
     11988     11991     11993     11988     11991     11994     11989     11988     11990
     11989     11988     11991     11990     11988     11991     11992     11991     11993
     11992     11991     11994     11993     11991     11994     11995     11996     11997
     11995     11996     11998     11995     11996     12011     11995     11999     12000
     11995     11999     12001     11995     11999     12002     11995     12003     12004
     11995     12003     12005     11995     12003     12006     11995     12007     12008
     11995     12007     12009     11995     12007     12010     11996     11995     11999
     11996     11995     12003     11996     11995     12007     11996     12011     12012
     11996     12011     12013     11996     12011     12017     11997     11996     11998
     11997     11996     12011     11998     11996     12011     11999     11995     12003
     11999     11995     12007     12000     11999     12001     12000     11999     12002
     12001     11999     12002     12003     11995     12007     12004     12003     12005
     12004     12003     12006     12005     12003     12006     12008     12007     12009
     12008     12007     12010     12009     12007     12010     12011     12017     12014
     12012     12011     12013     12012     12011     12017     12013     12011     12017
     12014     12018     12019     12015     12014     12016     12015     12014     12017
     12015     12014     12018     12016     12014     12017     12016     12014     12018
     12017     12014     12018     12018     12019     12020     12018     12019     12021
     12018     12019     12022     12019     12022     12023     12019     12022     12024
     12019     12022     12030     12020     12019     12021     12020     12019     12022
     12021     12019     12022     12022     12024     12025     12022     12030     12031
     12022     12030     12032     12022     12030     12033     12023     12022     12024
     12023     12022     12030     12024     12022     12030     12024     12025     12026
     12024     12025     12027     12025     12027     12028     12025     12027     12029
     12025     12027     12039     12026     12025     12027     12027     12039     12040
     12027     12039     12041     12027     12039     12042     12028     12027     12029
     12028     12027     12039     12029     12027     12039     12030     12033     12034
     12031     12030     12032     12031     12030     12033     12032     12030     12033
     12033     12034     12035     12033     12034     12036     12034     12036     12037
     12034     12036     12038     12034     12036     12086     12035     12034     12036
     12036     12086     12087     12036     12086     12088     12036     12086     12089
     12037     12036     12038     12037     12036     12086     12038     12036     12086
     12039     12042     12043     12039     12042     12044     12039     12042     12045
     12040     12039     12041     12040     12039     12042     12041     12039     12042
     12042     12045     12046     12042     12045     12047     12042     12045     12048
     12043     12042     12044     12043     12042     12045     12044     12042     12045
     12045     12048     12049     12045     12048     12050     12045     12048     12051
     12046     12045     12047     12046     12045     12048     12047     12045     12048
     12048     12051     12052     12048     12051     12053     12048     12051     12054
     12049     12048     12050     12049     12048     12051     12050     12048     12051
     12051     12054     12055     12051     12054     12056     12051     12054     12057
     12052     12051     12053     12052     12051     12054     12053     12051     12054
     12054     12057     12058     12054     12057     12059     12055     12054     12056
     12055     12054     12057     12056     12054     12057     12057     12059     12060
     12057     12059     12061     12058     12057     12059     12059     12061     12062
     12059     12061     12063     12059     12061     12064     12060     12059     12061
     12061     12064     12065     12061     12064     12066     12061     12064     12067
     12062     12061     12063     12062     12061     12064     12063     12061     12064
     12064     12067     12068     12064     12067     12069     12064     12067     12070
     12065     12064     12066     12065     12064     12067     12066     12064     12067
     12067     12070     12071     12067     12070     12072     12067     12070     12073
     12068     12067     12069     12068     12067     12070     12069     12067     12070
     12070     12073     12074     12070     12073     12075     12070     12073     12076
     12071     12070     12072     12071     12070     12073     12072     12070     12073
     12073     12076     12077     12073     12076     12078     12073     12076     12079
     12074     12073     12075     12074     12073     12076     12075     12073     12076
     12076     12079     12080     12076     12079     12081     12076     12079     12082
     12077     12076     12078     12077     12076     12079     12078     12076     12079
     12079     12082     12083     12079     12082     12084     12079     12082     12085
     12080     12079     12081     12080     12079     12082     12081     12079     12082
     12083     12082     12084     12083     12082     12085     12084     12082     12085
     12086     12089     12090     12086     12089     12091     12086     12089     12092
     12087     12086     12088     12087     12086     12089     12088     12086     12089
     12089     12092     12093     12089     12092     12094     12089     12092     12095
     12090     12089     12091     12090     12089     12092     12091     12089     12092
     12092     12095     12096     12092     12095     12097     12092     12095     12098
     12093     12092     12094     12093     12092     12095     12094     12092     12095
     12095     12098     12099     12095     12098     12100     12095     12098     12101
     12096     12095     12097     12096     12095     12098     12097     12095     12098
     12098     12101     12102     12098     12101     12103     12098     12101     12104
     12099     12098     12100     12099     12098     12101     12100     12098     12101
     12101     12104     12105     12101     12104     12106     12101     12104     12107
     12102     12101     12103     12102     12101     12104     12103     12101     12104
     12104     12107     12108     12104     12107     12109     12104     12107     12110
     12105     12104     12106     12105     12104     12107     12106     12104     12107
     12107     12110     12111     12107     12110     12112     12107     12110     12113
     12108     12107     12109     12108     12107     12110     12109     12107     12110
     12110     12113     12114     12110     12113     12115     12110     12113     12116
     12111     12110     12112     12111     12110     12113     12112     12110     12113
     12113     12116     12117     12113     12116     12118     12113     12116     12119
     12114     12113     12115     12114     12113     12116     12115     12113     12116
     12116     12119     12120     12116     12119     12121     12116     12119     12122
     12117     12116     12118     12117     12116     12119     12118     12116     12119
     12119     12122     12123     12119     12122     12124     12119     12122     12125
     12120     12119     12121     12120     12119     12122     12121     12119     12122
     12122     12125     12126     12122     12125     12127     12122     12125     12128
     12123     12122     12124     12123     12122     12125     12124     12122     12125
     12126     12125     12127     12126     12125     12128     12127     12125     12128
     12129     12130     12131     12129     12130     12132     12129     12130     12145
     12129     12133     12134     12129     12133     12135     12129     12133     12136
     12129     12137     12138     12129     12137     12139     12129     12137     12140
     12129     12141     12142     12129     12141     12143     12129     12141     12144
     12130     12129     12133     12130     12129     12137     12130     12129     12141
     12130     12145     12146     12130     12145     12147     12130     12145     12151
     12131     12130     12132     12131     12130     12145     12132     12130     12145
     12133     12129     12137     12133     12129     12141     12134     12133     12135
     12134     12133     12136     12135     12133     12136     12137     12129     12141
     12138     12137     12139     12138     12137     12140     12139     12137     12140
     12142     12141     12143     12142     12141     12144     12143     12141     12144
     12145     12151     12148     12146     12145     12147     12146     12145     12151
     12147     12145     12151     12148     12152     12153     12149     12148     12150
     12149     12148     12151     12149     12148     12152     12150     12148     12151
     12150     12148     12152     12151     12148     12152     12152     12153     12154
     12152     12153     12155     12152     12153     12156     12153     12156     12157
     12153     12156     12158     12153     12156     12164     12154     12153     12155
     12154     12153     12156     12155     12153     12156     12156     12158     12159
     12156     12164     12165     12156     12164     12166     12156     12164     12167
     12157     12156     12158     12157     12156     12164     12158     12156     12164
     12158     12159     12160     12158     12159     12161     12159     12161     12162
     12159     12161     12163     12159     12161     12173     12160     12159     12161
     12161     12173     12174     12161     12173     12175     12161     12173     12176
     12162     12161     12163     12162     12161     12173     12163     12161     12173
     12164     12167     12168     12165     12164     12166     12165     12164     12167
     12166     12164     12167     12167     12168     12169     12167     12168     12170
     12168     12170     12171     12168     12170     12172     12168     12170     12220
     12169     12168     12170     12170     12220     12221     12170     12220     12222
     12170     12220     12223     12171     12170     12172     12171     12170     12220
     12172     12170     12220     12173     12176     12177     12173     12176     12178
     12173     12176     12179     12174     12173     12175     12174     12173     12176
     12175     12173     12176     12176     12179     12180     12176     12179     12181
     12176     12179     12182     12177     12176     12178     12177     12176     12179
     12178     12176     12179     12179     12182     12183     12179     12182     12184
     12179     12182     12185     12180     12179     12181     12180     12179     12182
     12181     12179     12182     12182     12185     12186     12182     12185     12187
     12182     12185     12188     12183     12182     12184     12183     12182     12185
     12184     12182     12185     12185     12188     12189     12185     12188     12190
     12185     12188     12191     12186     12185     12187     12186     12185     12188
     12187     12185     12188     12188     12191     12192     12188     12191     12193
     12189     12188     12190     12189     12188     12191     12190     12188     12191
     12191     12193     12194     12191     12193     12195     12192     12191     12193
     12193     12195     12196     12193     12195     12197     12193     12195     12198
     12194     12193     12195     12195     12198     12199     12195     12198     12200
     12195     12198     12201     12196     12195     12197     12196     12195     12198
     12197     12195     12198     12198     12201     12202     12198     12201     12203
     12198     12201     12204     12199     12198     12200     12199     12198     12201
     12200     12198     12201     12201     12204     12205     12201     12204     12206
     12201     12204     12207     12202     12201     12203     12202     12201     12204
     12203     12201     12204     12204     12207     12208     12204     12207     12209
     12204     12207     12210     12205     12204     12206     12205     12204     12207
     12206     12204     12207     12207     12210     12211     12207     12210     12212
     12207     12210     12213     12208     12207     12209     12208     12207     12210
     12209     12207     12210     12210     12213     12214     12210     12213     12215
     12210     12213     12216     12211     12210     12212     12211     12210     12213
     12212     12210     12213     12213     12216     12217     12213     12216     12218
     12213     12216     12219     12214     12213     12215     12214     12213     12216
     12215     12213     12216     12217     12216     12218     12217     12216     12219
     12218     12216     12219     12220     12223     12224     12220     12223     12225
     12220     12223     12226     12221     12220     12222     12221     12220     12223
     12222     12220     12223     12223     12226     12227     12223     12226     12228
     12223     12226     12229     12224     12223     12225     12224     12223     12226
     12225     12223     12226     12226     12229     12230     12226     12229     12231
     12226     12229     12232     12227     12226     12228     12227     12226     12229
     12228     12226     12229     12229     12232     12233     12229     12232     12234
     12229     12232     12235     12230     12229     12231     12230     12229     12232
     12231     12229     12232     12232     12235     12236     12232     12235     12237
     12232     12235     12238     12233     12232     12234     12233     12232     12235
     12234     12232     12235     12235     12238     12239     12235     12238     12240
     12235     12238     12241     12236     12235     12237     12236     12235     12238
     12237     12235     12238     12238     12241     12242     12238     12241     12243
     12238     12241     12244     12239     12238     12240     12239     12238     12241
     12240     12238     12241     12241     12244     12245     12241     12244     12246
     12241     12244     12247     12242     12241     12243     12242     12241     12244
     12243     12241     12244     12244     12247     12248     12244     12247     12249
     12244     12247     12250     12245     12244     12246     12245     12244     12247
     12246     12244     12247     12247     12250     12251     12247     12250     12252
     12247     12250     12253     12248     12247     12249     12248     12247     12250
     12249     12247     12250     12250     12253     12254     12250     12253     12255
     12250     12253     12256     12251     12250     12252     12251     12250     12253
     12252     12250     12253     12253     12256     12257     12253     12256     12258
     12253     12256     12259     12254     12253     12255     12254     12253     12256
     12255     12253     12256     12256     12259     12260     12256     12259     12261
     12256     12259     12262     12257     12256     12258     12257     12256     12259
     12258     12256     12259     12260     12259     12261     12260     12259     12262
     12261     12259     12262     12263     12264     12265     12263     12264     12266
     12263     12264     12279     12263     12267     12268     12263     12267     12269
     12263     12267     12270     12263     12271     12272     12263     12271     12273
     12263     12271     12274     12263     12275     12276     12263     12275     12277
     12263     12275     12278     12264     12263     12267     12264     12263     12271
     12264     12263     12275     12264     12279     12280     12264     12279     12281
     12264     12279     12285     12265     12264     12266     12265     12264     12279
     12266     12264     12279     12267     12263     12271     12267     12263     12275
     12268     12267     12269     12268     12267     12270     12269     12267     12270
     12271     12263     12275     12272     12271     12273     12272     12271     12274
     12273     12271     12274     12276     12275     12277     12276     12275     12278
     12277     12275     12278     12279     12285     12282     12280     12279     12281
     12280     12279     12285     12281     12279     12285     12282     12286     12287
     12283     12282     12284     12283     12282     12285     12283     12282     12286
     12284     12282     12285     12284     12282     12286     12285     12282     12286
     12286     12287     12288     12286     12287     12289     12286     12287     12290
     12287     12290     12291     12287     12290     12292     12287     12290     12298
     12288     12287     12289     12288     12287     12290     12289     12287     12290
     12290     12292     12293     12290     12298     12299     12290     12298     12300
     12290     12298     12301     12291     12290     12292     12291     12290     12298
     12292     12290     12298     12292     12293     12294     12292     12293     12295
     12293     12295     12296     12293     12295     12297     12293     12295     12307
     12294     12293     12295     12295     12307     12308     12295     12307     12309
     12295     12307     12310     12296     12295     12297     12296     12295     12307
     12297     12295     12307     12298     12301     12302     12299     12298     12300
     12299     12298     12301     12300     12298     12301     12301     12302     12303
     12301     12302     12304     12302     12304     12305     12302     12304     12306
     12302     12304     12354     12303     12302     12304     12304     12354     12355
     12304     12354     12356     12304     12354     12357     12305     12304     12306
     12305     12304     12354     12306     12304     12354     12307     12310     12311
     12307     12310     12312     12307     12310     12313     12308     12307     12309
     12308     12307     12310     12309     12307     12310     12310     12313     12314
     12310     12313     12315     12310     12313     12316     12311     12310     12312
     12311     12310     12313     12312     12310     12313     12313     12316     12317
     12313     12316     12318     12313     12316     12319     12314     12313     12315
     12314     12313     12316     12315     12313     12316     12316     12319     12320
     12316     12319     12321     12316     12319     12322     12317     12316     12318
     12317     12316     12319     12318     12316     12319     12319     12322     12323
     12319     12322     12324     12319     12322     12325     12320     12319     12321
     12320     12319     12322     12321     12319     12322     12322     12325     12326
     12322     12325     12327     12323     12322     12324     12323     12322     12325
     12324     12322     12325     12325     12327     12328     12325     12327     12329
     12326     12325     12327     12327     12329     12330     12327     12329     12331
     12327     12329     12332     12328     12327     12329     12329     12332     12333
     12329     12332     12334     12329     12332     12335     12330     12329     12331
     12330     12329     12332     12331     12329     12332     12332     12335     12336
     12332     12335     12337     12332     12335     12338     12333     12332     12334
     12333     12332     12335     12334     12332     12335     12335     12338     12339
     12335     12338     12340     12335     12338     12341     12336     12335     12337
     12336     12335     12338     12337     12335     12338     12338     12341     12342
     12338     12341     12343     12338     12341     12344     12339     12338     12340
     12339     12338     12341     12340     12338     12341     12341     12344     12345
     12341     12344     12346     12341     12344     12347     12342     12341     12343
     12342     12341     12344     12343     12341     12344     12344     12347     12348
     12344     12347     12349     12344     12347     12350     12345     12344     12346
     12345     12344     12347     12346     12344     12347     12347     12350     12351
     12347     12350     12352     12347     12350     12353     12348     12347     12349
     12348     12347     12350     12349     12347     12350     12351     12350     12352
     12351     12350     12353     12352     12350     12353     12354     12357     12358
     12354     12357     12359     12354     12357     12360     12355     12354     12356
     12355     12354     12357     12356     12354     12357     12357     12360     12361
     12357     12360     12362     12357     12360     12363     12358     12357     12359
     12358     12357     12360     12359     12357     12360     12360     12363     12364
     12360     12363     12365     12360     12363     12366     12361     12360     12362
     12361     12360     12363     12362     12360     12363     12363     12366     12367
     12363     12366     12368     12363     12366     12369     12364     12363     12365
     12364     12363     12366     12365     12363     12366     12366     12369     12370
     12366     12369     12371     12366     12369     12372     12367     12366     12368
     12367     12366     12369     12368     12366     12369     12369     12372     12373
     12369     12372     12374     12369     12372     12375     12370     12369     12371
     12370     12369     12372     12371     12369     12372     12372     12375     12376
     12372     12375     12377     12372     12375     12378     12373     12372     12374
     12373     12372     12375     12374     12372     12375     12375     12378     12379
     12375     12378     12380     12375     12378     12381     12376     12375     12377
     12376     12375     12378     12377     12375     12378     12378     12381     12382
     12378     12381     12383     12378     12381     12384     12379     12378     12380
     12379     12378     12381     12380     12378     12381     12381     12384     12385
     12381     12384     12386     12381     12384     12387     12382     12381     12383
     12382     12381     12384     12383     12381     12384     12384     12387     12388
     12384     12387     12389     12384     12387     12390     12385     12384     12386
     12385     12384     12387     12386     12384     12387     12387     12390     12391
     12387     12390     12392     12387     12390     12393     12388     12387     12389
     12388     12387     12390     12389     12387     12390     12390     12393     12394
     12390     12393     12395     12390     12393     12396     12391     12390     12392
     12391     12390     12393     12392     12390     12393     12394     12393     12395
     12394     12393     12396     12395     12393     12396     12397     12398     12399
     12397     12398     12400     12397     12398     12413     12397     12401     12402
     12397     12401     12403     12397     12401     12404     12397     12405     12406
     12397     12405     12407     12397     12405     12408     12397     12409     12410
     12397     12409     12411     12397     12409     12412     12398     12397     12401
     12398     12397     12405     12398     12397     12409     12398     12413     12414
     12398     12413     12415     12398     12413     12419     12399     12398     12400
     12399     12398     12413     12400     12398     12413     12401     12397     12405
     12401     12397     12409     12402     12401     12403     12402     12401     12404
     12403     12401     12404     12405     12397     12409     12406     12405     12407
     12406     12405     12408     12407     12405     12408     12410     12409     12411
     12410     12409     12412     12411     12409     12412     12413     12419     12416
     12414     12413     12415     12414     12413     12419     12415     12413     12419
     12416     12420     12421     12417     12416     12418     12417     12416     12419
     12417     12416     12420     12418     12416     12419     12418     12416     12420
     12419     12416     12420     12420     12421     12422     12420     12421     12423
     12420     12421     12424     12421     12424     12425     12421     12424     12426
     12421     12424     12432     12422     12421     12423     12422     12421     12424
     12423     12421     12424     12424     12426     12427     12424     12432     12433
     12424     12432     12434     12424     12432     12435     12425     12424     12426
     12425     12424     12432     12426     12424     12432     12426     12427     12428
     12426     12427     12429     12427     12429     12430     12427     12429     12431
     12427     12429     12441     12428     12427     12429     12429     12441     12442
     12429     12441     12443     12429     12441     12444     12430     12429     12431
     12430     12429     12441     12431     12429     12441     12432     12435     12436
     12433     12432     12434     12433     12432     12435     12434     12432     12435
     12435     12436     12437     12435     12436     12438     12436     12438     12439
     12436     12438     12440     12436     12438     12488     12437     12436     12438
     12438     12488     12489     12438     12488     12490     12438     12488     12491
     12439     12438     12440     12439     12438     12488     12440     12438     12488
     12441     12444     12445     12441     12444     12446     12441     12444     12447
     12442     12441     12443     12442     12441     12444     12443     12441     12444
     12444     12447     12448     12444     12447     12449     12444     12447     12450
     12445     12444     12446     12445     12444     12447     12446     12444     12447
     12447     12450     12451     12447     12450     12452     12447     12450     12453
     12448     12447     12449     12448     12447     12450     12449     12447     12450
     12450     12453     12454     12450     12453     12455     12450     12453     12456
     12451     12450     12452     12451     12450     12453     12452     12450     12453
     12453     12456     12457     12453     12456     12458     12453     12456     12459
     12454     12453     12455     12454     12453     12456     12455     12453     12456
     12456     12459     12460     12456     12459     12461     12457     12456     12458
     12457     12456     12459     12458     12456     12459     12459     12461     12462
     12459     12461     12463     12460     12459     12461     12461     12463     12464
     12461     12463     12465     12461     12463     12466     12462     12461     12463
     12463     12466     12467     12463     12466     12468     12463     12466     12469
     12464     12463     12465     12464     12463     12466     12465     12463     12466
     12466     12469     12470     12466     12469     12471     12466     12469     12472
     12467     12466     12468     12467     12466     12469     12468     12466     12469
     12469     12472     12473     12469     12472     12474     12469     12472     12475
     12470     12469     12471     12470     12469     12472     12471     12469     12472
     12472     12475     12476     12472     12475     12477     12472     12475     12478
     12473     12472     12474     12473     12472     12475     12474     12472     12475
     12475     12478     12479     12475     12478     12480     12475     12478     12481
     12476     12475     12477     12476     12475     12478     12477     12475     12478
     12478     12481     12482     12478     12481     12483     12478     12481     12484
     12479     12478     12480     12479     12478     12481     12480     12478     12481
     12481     12484     12485     12481     12484     12486     12481     12484     12487
     12482     12481     12483     12482     12481     12484     12483     12481     12484
     12485     12484     12486     12485     12484     12487     12486     12484     12487
     12488     12491     12492     12488     12491     12493     12488     12491     12494
     12489     12488     12490     12489     12488     12491     12490     12488     12491
     12491     12494     12495     12491     12494     12496     12491     12494     12497
     12492     12491     12493     12492     12491     12494     12493     12491     12494
     12494     12497     12498     12494     12497     12499     12494     12497     12500
     12495     12494     12496     12495     12494     12497     12496     12494     12497
     12497     12500     12501     12497     12500     12502     12497     12500     12503
     12498     12497     12499     12498     12497     12500     12499     12497     12500
     12500     12503     12504     12500     12503     12505     12500     12503     12506
     12501     12500     12502     12501     12500     12503     12502     12500     12503
     12503     12506     12507     12503     12506     12508     12503     12506     12509
     12504     12503     12505     12504     12503     12506     12505     12503     12506
     12506     12509     12510     12506     12509     12511     12506     12509     12512
     12507     12506     12508     12507     12506     12509     12508     12506     12509
     12509     12512     12513     12509     12512     12514     12509     12512     12515
     12510     12509     12511     12510     12509     12512     12511     12509     12512
     12512     12515     12516     12512     12515     12517     12512     12515     12518
     12513     12512     12514     12513     12512     12515     12514     12512     12515
     12515     12518     12519     12515     12518     12520     12515     12518     12521
     12516     12515     12517     12516     12515     12518     12517     12515     12518
     12518     12521     12522     12518     12521     12523     12518     12521     12524
     12519     12518     12520     12519     12518     12521     12520     12518     12521
     12521     12524     12525     12521     12524     12526     12521     12524     12527
     12522     12521     12523     12522     12521     12524     12523     12521     12524
     12524     12527     12528     12524     12527     12529     12524     12527     12530
     12525     12524     12526     12525     12524     12527     12526     12524     12527
     12528     12527     12529     12528     12527     12530     12529     12527     12530
     12531     12532     12533     12531     12532     12534     12531     12532     12547
     12531     12535     12536     12531     12535     12537     12531     12535     12538
     12531     12539     12540     12531     12539     12541     12531     12539     12542
     12531     12543     12544     12531     12543     12545     12531     12543     12546
     12532     12531     12535     12532     12531     12539     12532     12531     12543
     12532     12547     12548     12532     12547     12549     12532     12547     12553
     12533     12532     12534     12533     12532     12547     12534     12532     12547
     12535     12531     12539     12535     12531     12543     12536     12535     12537
     12536     12535     12538     12537     12535     12538     12539     12531     12543
     12540     12539     12541     12540     12539     12542     12541     12539     12542
     12544     12543     12545     12544     12543     12546     12545     12543     12546
     12547     12553     12550     12548     12547     12549     12548     12547     12553
     12549     12547     12553     12550     12554     12555     12551     12550     12552
     12551     12550     12553     12551     12550     12554     12552     12550     12553
     12552     12550     12554     12553     12550     12554     12554     12555     12556
     12554     12555     12557     12554     12555     12558     12555     12558     12559
     12555     12558     12560     12555     12558     12566     12556     12555     12557
     12556     12555     12558     12557     12555     12558     12558     12560     12561
     12558     12566     12567     12558     12566     12568     12558     12566     12569
     12559     12558     12560     12559     12558     12566     12560     12558     12566
     12560     12561     12562     12560     12561     12563     12561     12563     12564
     12561     12563     12565     12561     12563     12575     12562     12561     12563
     12563     12575     12576     12563     12575     12577     12563     12575     12578
     12564     12563     12565     12564     12563     12575     12565     12563     12575
     12566     12569     12570     12567     12566     12568     12567     12566     12569
     12568     12566     12569     12569     12570     12571     12569     12570     12572
     12570     12572     12573     12570     12572     12574     12570     12572     12622
     12571     12570     12572     12572     12622     12623     12572     12622     12624
     12572     12622     12625     12573     12572     12574     12573     12572     12622
     12574     12572     12622     12575     12578     12579     12575     12578     12580
     12575     12578     12581     12576     12575     12577     12576     12575     12578
     12577     12575     12578     12578     12581     12582     12578     12581     12583
     12578     12581     12584     12579     12578     12580     12579     12578     12581
     12580     12578     12581     12581     12584     12585     12581     12584     12586
     12581     12584     12587     12582     12581     12583     12582     12581     12584
     12583     12581     12584     12584     12587     12588     12584     12587     12589
     12584     12587     12590     12585     12584     12586     12585     12584     12587
     12586     12584     12587     12587     12590     12591     12587     12590     12592
     12587     12590     12593     12588     12587     12589     12588     12587     12590
     12589     12587     12590     12590     12593     12594     12590     12593     12595
     12591     12590     12592     12591     12590     12593     12592     12590     12593
     12593     12595     12596     12593     12595     12597     12594     12593     12595
     12595     12597     12598     12595     12597     12599     12595     12597     12600
     12596     12595     12597     12597     12600     12601     12597     12600     12602
     12597     12600     12603     12598     12597     12599     12598     12597     12600
     12599     12597     12600     12600     12603     12604     12600     12603     12605
     12600     12603     12606     12601     12600     12602     12601     12600     12603
     12602     12600     12603     12603     12606     12607     12603     12606     12608
     12603     12606     12609     12604     12603     12605     12604     12603     12606
     12605     12603     12606     12606     12609     12610     12606     12609     12611
     12606     12609     12612     12607     12606     12608     12607     12606     12609
     12608     12606     12609     12609     12612     12613     12609     12612     12614
     12609     12612     12615     12610     12609     12611     12610     12609     12612
     12611     12609     12612     12612     12615     12616     12612     12615     12617
     12612     12615     12618     12613     12612     12614     12613     12612     12615
     12614     12612     12615     12615     12618     12619     12615     12618     12620
     12615     12618     12621     12616     12615     12617     12616     12615     12618
     12617     12615     12618     12619     12618     12620     12619     12618     12621
     12620     12618     12621     12622     12625     12626     12622     12625     12627
     12622     12625     12628     12623     12622     12624     12623     12622     12625
     12624     12622     12625     12625     12628     12629     12625     12628     12630
     12625     12628     12631     12626     12625     12627     12626     12625     12628
     12627     12625     12628     12628     12631     12632     12628     12631     12633
     12628     12631     12634     12629     12628     12630     12629     12628     12631
     12630     12628     12631     12631     12634     12635     12631     12634     12636
     12631     12634     12637     12632     12631     12633     12632     12631     12634
     12633     12631     12634     12634     12637     12638     12634     12637     12639
     12634     12637     12640     12635     12634     12636     12635     12634     12637
     12636     12634     12637     12637     12640     12641     12637     12640     12642
     12637     12640     12643     12638     12637     12639     12638     12637     12640
     12639     12637     12640     12640     12643     12644     12640     12643     12645
     12640     12643     12646     12641     12640     12642     12641     12640     12643
     12642     12640     12643     12643     12646     12647     12643     12646     12648
     12643     12646     12649     12644     12643     12645     12644     12643     12646
     12645     12643     12646     12646     12649     12650     12646     12649     12651
     12646     12649     12652     12647     12646     12648     12647     12646     12649
     12648     12646     12649     12649     12652     12653     12649     12652     12654
     12649     12652     12655     12650     12649     12651     12650     12649     12652
     12651     12649     12652     12652     12655     12656     12652     12655     12657
     12652     12655     12658     12653     12652     12654     12653     12652     12655
     12654     12652     12655     12655     12658     12659     12655     12658     12660
     12655     12658     12661     12656     12655     12657     12656     12655     12658
     12657     12655     12658     12658     12661     12662     12658     12661     12663
     12658     12661     12664     12659     12658     12660     12659     12658     12661
     12660     12658     12661     12662     12661     12663     12662     12661     12664
     12663     12661     12664     12665     12666     12667     12665     12666     12668
     12665     12666     12681     12665     12669     12670     12665     12669     12671
     12665     12669     12672     12665     12673     12674     12665     12673     12675
     12665     12673     12676     12665     12677     12678     12665     12677     12679
     12665     12677     12680     12666     12665     12669     12666     12665     12673
     12666     12665     12677     12666     12681     12682     12666     12681     12683
     12666     12681     12687     12667     12666     12668     12667     12666     12681
     12668     12666     12681     12669     12665     12673     12669     12665     12677
     12670     12669     12671     12670     12669     12672     12671     12669     12672
     12673     12665     12677     12674     12673     12675     12674     12673     12676
     12675     12673     12676     12678     12677     12679     12678     12677     12680
     12679     12677     12680     12681     12687     12684     12682     12681     12683
     12682     12681     12687     12683     12681     12687     12684     12688     12689
     12685     12684     12686     12685     12684     12687     12685     12684     12688
     12686     12684     12687     12686     12684     12688     12687     12684     12688
     12688     12689     12690     12688     12689     12691     12688     12689     12692
     12689     12692     12693     12689     12692     12694     12689     12692     12700
     12690     12689     12691     12690     12689     12692     12691     12689     12692
     12692     12694     12695     12692     12700     12701     12692     12700     12702
     12692     12700     12703     12693     12692     12694     12693     12692     12700
     12694     12692     12700     12694     12695     12696     12694     12695     12697
     12695     12697     12698     12695     12697     12699     12695     12697     12709
     12696     12695     12697     12697     12709     12710     12697     12709     12711
     12697     12709     12712     12698     12697     12699     12698     12697     12709
     12699     12697     12709     12700     12703     12704     12701     12700     12702
     12701     12700     12703     12702     12700     12703     12703     12704     12705
     12703     12704     12706     12704     12706     12707     12704     12706     12708
     12704     12706     12756     12705     12704     12706     12706     12756     12757
     12706     12756     12758     12706     12756     12759     12707     12706     12708
     12707     12706     12756     12708     12706     12756     12709     12712     12713
     12709     12712     12714     12709     12712     12715     12710     12709     12711
     12710     12709     12712     12711     12709     12712     12712     12715     12716
     12712     12715     12717     12712     12715     12718     12713     12712     12714
     12713     12712     12715     12714     12712     12715     12715     12718     12719
     12715     12718     12720     12715     12718     12721     12716     12715     12717
     12716     12715     12718     12717     12715     12718     12718     12721     12722
     12718     12721     12723     12718     12721     12724     12719     12718     12720
     12719     12718     12721     12720     12718     12721     12721     12724     12725
     12721     12724     12726     12721     12724     12727     12722     12721     12723
     12722     12721     12724     12723     12721     12724     12724     12727     12728
     12724     12727     12729     12725     12724     12726     12725     12724     12727
     12726     12724     12727     12727     12729     12730     12727     12729     12731
     12728     12727     12729     12729     12731     12732     12729     12731     12733
     12729     12731     12734     12730     12729     12731     12731     12734     12735
     12731     12734     12736     12731     12734     12737     12732     12731     12733
     12732     12731     12734     12733     12731     12734     12734     12737     12738
     12734     12737     12739     12734     12737     12740     12735     12734     12736
     12735     12734     12737     12736     12734     12737     12737     12740     12741
     12737     12740     12742     12737     12740     12743     12738     12737     12739
     12738     12737     12740     12739     12737     12740     12740     12743     12744
     12740     12743     12745     12740     12743     12746     12741     12740     12742
     12741     12740     12743     12742     12740     12743     12743     12746     12747
     12743     12746     12748     12743     12746     12749     12744     12743     12745
     12744     12743     12746     12745     12743     12746     12746     12749     12750
     12746     12749     12751     12746     12749     12752     12747     12746     12748
     12747     12746     12749     12748     12746     12749     12749     12752     12753
     12749     12752     12754     12749     12752     12755     12750     12749     12751
     12750     12749     12752     12751     12749     12752     12753     12752     12754
     12753     12752     12755     12754     12752     12755     12756     12759     12760
     12756     12759     12761     12756     12759     12762     12757     12756     12758
     12757     12756     12759     12758     12756     12759     12759     12762     12763
     12759     12762     12764     12759     12762     12765     12760     12759     12761
     12760     12759     12762     12761     12759     12762     12762     12765     12766
     12762     12765     12767     12762     12765     12768     12763     12762     12764
     12763     12762     12765     12764     12762     12765     12765     12768     12769
     12765     12768     12770     12765     12768     12771     12766     12765     12767
     12766     12765     12768     12767     12765     12768     12768     12771     12772
     12768     12771     12773     12768     12771     12774     12769     12768     12770
     12769     12768     12771     12770     12768     12771     12771     12774     12775
     12771     12774     12776     12771     12774     12777     12772     12771     12773
     12772     12771     12774     12773     12771     12774     12774     12777     12778
     12774     12777     12779     12774     12777     12780     12775     12774     12776
     12775     12774     12777     12776     12774     12777     12777     12780     12781
     12777     12780     12782     12777     12780     12783     12778     12777     12779
     12778     12777     12780     12779     12777     12780     12780     12783     12784
     12780     12783     12785     12780     12783     12786     12781     12780     12782
     12781     12780     12783     12782     12780     12783     12783     12786     12787
     12783     12786     12788     12783     12786     12789     12784     12783     12785
     12784     12783     12786     12785     12783     12786     12786     12789     12790
     12786     12789     12791     12786     12789     12792     12787     12786     12788
     12787     12786     12789     12788     12786     12789     12789     12792     12793
     12789     12792     12794     12789     12792     12795     12790     12789     12791
     12790     12789     12792     12791     12789     12792     12792     12795     12796
     12792     12795     12797     12792     12795     12798     12793     12792     12794
     12793     12792     12795     12794     12792     12795     12796     12795     12797
     12796     12795     12798     12797     12795     12798     12799     12800     12801
     12799     12800     12802     12799     12800     12815     12799     12803     12804
     12799     12803     12805     12799     12803     12806     12799     12807     12808
     12799     12807     12809     12799     12807     12810     12799     12811     12812
     12799     12811     12813     12799     12811     12814     12800     12799     12803
     12800     12799     12807     12800     12799     12811     12800     12815     12816
     12800     12815     12817     12800     12815     12821     12801     12800     12802
     12801     12800     12815     12802     12800     12815     12803     12799     12807
     12803     12799     12811     12804     12803     12805     12804     12803     12806
     12805     12803     12806     12807     12799     12811     12808     12807     12809
     12808     12807     12810     12809     12807     12810     12812     12811     12813
     12812     12811     12814     12813     12811     12814     12815     12821     12818
     12816     12815     12817     12816     12815     12821     12817     12815     12821
     12818     12822     12823     12819     12818     12820     12819     12818     12821
     12819     12818     12822     12820     12818     12821     12820     12818     12822
     12821     12818     12822     12822     12823     12824     12822     12823     12825
     12822     12823     12826     12823     12826     12827     12823     12826     12828
     12823     12826     12834     12824     12823     12825     12824     12823     12826
     12825     12823     12826     12826     12828     12829     12826     12834     12835
     12826     12834     12836     12826     12834     12837     12827     12826     12828
     12827     12826     12834     12828     12826     12834     12828     12829     12830
     12828     12829     12831     12829     12831     12832     12829     12831     12833
     12829     12831     12843     12830     12829     12831     12831     12843     12844
     12831     12843     12845     12831     12843     12846     12832     12831     12833
     12832     12831     12843     12833     12831     12843     12834     12837     12838
     12835     12834     12836     12835     12834     12837     12836     12834     12837
     12837     12838     12839     12837     12838     12840     12838     12840     12841
     12838     12840     12842     12838     12840     12890     12839     12838     12840
     12840     12890     12891     12840     12890     12892     12840     12890     12893
     12841     12840     12842     12841     12840     12890     12842     12840     12890
     12843     12846     12847     12843     12846     12848     12843     12846     12849
     12844     12843     12845     12844     12843     12846     12845     12843     12846
     12846     12849     12850     12846     12849     12851     12846     12849     12852
     12847     12846     12848     12847     12846     12849     12848     12846     12849
     12849     12852     12853     12849     12852     12854     12849     12852     12855
     12850     12849     12851     12850     12849     12852     12851     12849     12852
     12852     12855     12856     12852     12855     12857     12852     12855     12858
     12853     12852     12854     12853     12852     12855     12854     12852     12855
     12855     12858     12859     12855     12858     12860     12855     12858     12861
     12856     12855     12857     12856     12855     12858     12857     12855     12858
     12858     12861     12862     12858     12861     12863     12859     12858     12860
     12859     12858     12861     12860     12858     12861     12861     12863     12864
     12861     12863     12865     12862     12861     12863     12863     12865     12866
     12863     12865     12867     12863     12865     12868     12864     12863     12865
     12865     12868     12869     12865     12868     12870     12865     12868     12871
     12866     12865     12867     12866     12865     12868     12867     12865     12868
     12868     12871     12872     12868     12871     12873     12868     12871     12874
     12869     12868     12870     12869     12868     12871     12870     12868     12871
     12871     12874     12875     12871     12874     12876     12871     12874     12877
     12872     12871     12873     12872     12871     12874     12873     12871     12874
     12874     12877     12878     12874     12877     12879     12874     12877     12880
     12875     12874     12876     12875     12874     12877     12876     12874     12877
     12877     12880     12881     12877     12880     12882     12877     12880     12883
     12878     12877     12879     12878     12877     12880     12879     12877     12880
     12880     12883     12884     12880     12883     12885     12880     12883     12886
     12881     12880     12882     12881     12880     12883     12882     12880     12883
     12883     12886     12887     12883     12886     12888     12883     12886     12889
     12884     12883     12885     12884     12883     12886     12885     12883     12886
     12887     12886     12888     12887     12886     12889     12888     12886     12889
     12890     12893     12894     12890     12893     12895     12890     12893     12896
     12891     12890     12892     12891     12890     12893     12892     12890     12893
     12893     12896     12897     12893     12896     12898     12893     12896     12899
     12894     12893     12895     12894     12893     12896     12895     12893     12896
     12896     12899     12900     12896     12899     12901     12896     12899     12902
     12897     12896     12898     12897     12896     12899     12898     12896     12899
     12899     12902     12903     12899     12902     12904     12899     12902     12905
     12900     12899     12901     12900     12899     12902     12901     12899     12902
     12902     12905     12906     12902     12905     12907     12902     12905     12908
     12903     12902     12904     12903     12902     12905     12904     12902     12905
     12905     12908     12909     12905     12908     12910     12905     12908     12911
     12906     12905     12907     12906     12905     12908     12907     12905     12908
     12908     12911     12912     12908     12911     12913     12908     12911     12914
     12909     12908     12910     12909     12908     12911     12910     12908     12911
     12911     12914     12915     12911     12914     12916     12911     12914     12917
     12912     12911     12913     12912     12911     12914     12913     12911     12914
     12914     12917     12918     12914     12917     12919     12914     12917     12920
     12915     12914     12916     12915     12914     12917     12916     12914     12917
     12917     12920     12921     12917     12920     12922     12917     12920     12923
     12918     12917     12919     12918     12917     12920     12919     12917     12920
     12920     12923     12924     12920     12923     12925     12920     12923     12926
     12921     12920     12922     12921     12920     12923     12922     12920     12923
     12923     12926     12927     12923     12926     12928     12923     12926     12929
     12924     12923     12925     12924     12923     12926     12925     12923     12926
     12926     12929     12930     12926     12929     12931     12926     12929     12932
     12927     12926     12928     12927     12926     12929     12928     12926     12929
     12930     12929     12931     12930     12929     12932     12931     12929     12932
     12933     12934     12935     12933     12934     12936     12933     12934     12949
     12933     12937     12938     12933     12937     12939     12933     12937     12940
     12933     12941     12942     12933     12941     12943     12933     12941     12944
     12933     12945     12946     12933     12945     12947     12933     12945     12948
     12934     12933     12937     12934     12933     12941     12934     12933     12945
     12934     12949     12950     12934     12949     12951     12934     12949     12955
     12935     12934     12936     12935     12934     12949     12936     12934     12949
     12937     12933     12941     12937     12933     12945     12938     12937     12939
     12938     12937     12940     12939     12937     12940     12941     12933     12945
     12942     12941     12943     12942     12941     12944     12943     12941     12944
     12946     12945     12947     12946     12945     12948     12947     12945     12948
     12949     12955     12952     12950     12949     12951     12950     12949     12955
     12951     12949     12955     12952     12956     12957     12953     12952     12954
     12953     12952     12955     12953     12952     12956     12954     12952     12955
     12954     12952     12956     12955     12952     12956     12956     12957     12958
     12956     12957     12959     12956     12957     12960     12957     12960     12961
     12957     12960     12962     12957     12960     12968     12958     12957     12959
     12958     12957     12960     12959     12957     12960     12960     12962     12963
     12960     12968     12969     12960     12968     12970     12960     12968     12971
     12961     12960     12962     12961     12960     12968     12962     12960     12968
     12962     12963     12964     12962     12963     12965     12963     12965     12966
     12963     12965     12967     12963     12965     12977     12964     12963     12965
     12965     12977     12978     12965     12977     12979     12965     12977     12980
     12966     12965     12967     12966     12965     12977     12967     12965     12977
     12968     12971     12972     12969     12968     12970     12969     12968     12971
     12970     12968     12971     12971     12972     12973     12971     12972     12974
     12972     12974     12975     12972     12974     12976     12972     12974     13024
     12973     12972     12974     12974     13024     13025     12974     13024     13026
     12974     13024     13027     12975     12974     12976     12975     12974     13024
     12976     12974     13024     12977     12980     12981     12977     12980     12982
     12977     12980     12983     12978     12977     12979     12978     12977     12980
     12979     12977     12980     12980     12983     12984     12980     12983     12985
     12980     12983     12986     12981     12980     12982     12981     12980     12983
     12982     12980     12983     12983     12986     12987     12983     12986     12988
     12983     12986     12989     12984     12983     12985     12984     12983     12986
     12985     12983     12986     12986     12989     12990     12986     12989     12991
     12986     12989     12992     12987     12986     12988     12987     12986     12989
     12988     12986     12989     12989     12992     12993     12989     12992     12994
     12989     12992     12995     12990     12989     12991     12990     12989     12992
     12991     12989     12992     12992     12995     12996     12992     12995     12997
     12993     12992     12994     12993     12992     12995     12994     12992     12995
     12995     12997     12998     12995     12997     12999     12996     12995     12997
     12997     12999     13000     12997     12999     13001     12997     12999     13002
     12998     12997     12999     12999     13002     13003     12999     13002     13004
     12999     13002     13005     13000     12999     13001     13000     12999     13002
     13001     12999     13002     13002     13005     13006     13002     13005     13007
     13002     13005     13008     13003     13002     13004     13003     13002     13005
     13004     13002     13005     13005     13008     13009     13005     13008     13010
     13005     13008     13011     13006     13005     13007     13006     13005     13008
     13007     13005     13008     13008     13011     13012     13008     13011     13013
     13008     13011     13014     13009     13008     13010     13009     13008     13011
     13010     13008     13011     13011     13014     13015     13011     13014     13016
     13011     13014     13017     13012     13011     13013     13012     13011     13014
     13013     13011     13014     13014     13017     13018     13014     13017     13019
     13014     13017     13020     13015     13014     13016     13015     13014     13017
     13016     13014     13017     13017     13020     13021     13017     13020     13022
     13017     13020     13023     13018     13017     13019     13018     13017     13020
     13019     13017     13020     13021     13020     13022     13021     13020     13023
     13022     13020     13023     13024     13027     13028     13024     13027     13029
     13024     13027     13030     13025     13024     13026     13025     13024     13027
     13026     13024     13027     13027     13030     13031     13027     13030     13032
     13027     13030     13033     13028     13027     13029     13028     13027     13030
     13029     13027     13030     13030     13033     13034     13030     13033     13035
     13030     13033     13036     13031     13030     13032     13031     13030     13033
     13032     13030     13033     13033     13036     13037     13033     13036     13038
     13033     13036     13039     13034     13033     13035     13034     13033     13036
     13035     13033     13036     13036     13039     13040     13036     13039     13041
     13036     13039     13042     13037     13036     13038     13037     13036     13039
     13038     13036     13039     13039     13042     13043     13039     13042     13044
     13039     13042     13045     13040     13039     13041     13040     13039     13042
     13041     13039     13042     13042     13045     13046     13042     13045     13047
     13042     13045     13048     13043     13042     13044     13043     13042     13045
     13044     13042     13045     13045     13048     13049     13045     13048     13050
     13045     13048     13051     13046     13045     13047     13046     13045     13048
     13047     13045     13048     13048     13051     13052     13048     13051     13053
     13048     13051     13054     13049     13048     13050     13049     13048     13051
     13050     13048     13051     13051     13054     13055     13051     13054     13056
     13051     13054     13057     13052     13051     13053     13052     13051     13054
     13053     13051     13054     13054     13057     13058     13054     13057     13059
     13054     13057     13060     13055     13054     13056     13055     13054     13057
     13056     13054     13057     13057     13060     13061     13057     13060     13062
     13057     13060     13063     13058     13057     13059     13058     13057     13060
     13059     13057     13060     13060     13063     13064     13060     13063     13065
     13060     13063     13066     13061     13060     13062     13061     13060     13063
     13062     13060     13063     13064     13063     13065     13064     13063     13066
     13065     13063     13066     13067     13068     13069     13067     13068     13070
     13067     13068     13083     13067     13071     13072     13067     13071     13073
     13067     13071     13074     13067     13075     13076     13067     13075     13077
     13067     13075     13078     13067     13079     13080     13067     13079     13081
     13067     13079     13082     13068     13067     13071     13068     13067     13075
     13068     13067     13079     13068     13083     13084     13068     13083     13085
     13068     13083     13089     13069     13068     13070     13069     13068     13083
     13070     13068     13083     13071     13067     13075     13071     13067     13079
     13072     13071     13073     13072     13071     13074     13073     13071     13074
     13075     13067     13079     13076     13075     13077     13076     13075     13078
     13077     13075     13078     13080     13079     13081     13080     13079     13082
     13081     13079     13082     13083     13089     13086     13084     13083     13085
     13084     13083     13089     13085     13083     13089     13086     13090     13091
     13087     13086     13088     13087     13086     13089     13087     13086     13090
     13088     13086     13089     13088     13086     13090     13089     13086     13090
     13090     13091     13092     13090     13091     13093     13090     13091     13094
     13091     13094     13095     13091     13094     13096     13091     13094     13102
     13092     13091     13093     13092     13091     13094     13093     13091     13094
     13094     13096     13097     13094     13102     13103     13094     13102     13104
     13094     13102     13105     13095     13094     13096     13095     13094     13102
     13096     13094     13102     13096     13097     13098     13096     13097     13099
     13097     13099     13100     13097     13099     13101     13097     13099     13111
     13098     13097     13099     13099     13111     13112     13099     13111     13113
     13099     13111     13114     13100     13099     13101     13100     13099     13111
     13101     13099     13111     13102     13105     13106     13103     13102     13104
     13103     13102     13105     13104     13102     13105     13105     13106     13107
     13105     13106     13108     13106     13108     13109     13106     13108     13110
     13106     13108     13158     13107     13106     13108     13108     13158     13159
     13108     13158     13160     13108     13158     13161     13109     13108     13110
     13109     13108     13158     13110     13108     13158     13111     13114     13115
     13111     13114     13116     13111     13114     13117     13112     13111     13113
     13112     13111     13114     13113     13111     13114     13114     13117     13118
     13114     13117     13119     13114     13117     13120     13115     13114     13116
     13115     13114     13117     13116     13114     13117     13117     13120     13121
     13117     13120     13122     13117     13120     13123     13118     13117     13119
     13118     13117     13120     13119     13117     13120     13120     13123     13124
     13120     13123     13125     13120     13123     13126     13121     13120     13122
     13121     13120     13123     13122     13120     13123     13123     13126     13127
     13123     13126     13128     13123     13126     13129     13124     13123     13125
     13124     13123     13126     13125     13123     13126     13126     13129     13130
     13126     13129     13131     13127     13126     13128     13127     13126     13129
     13128     13126     13129     13129     13131     13132     13129     13131     13133
     13130     13129     13131     13131     13133     13134     13131     13133     13135
     13131     13133     13136     13132     13131     13133     13133     13136     13137
     13133     13136     13138     13133     13136     13139     13134     13133     13135
     13134     13133     13136     13135     13133     13136     13136     13139     13140
     13136     13139     13141     13136     13139     13142     13137     13136     13138
     13137     13136     13139     13138     13136     13139     13139     13142     13143
     13139     13142     13144     13139     13142     13145     13140     13139     13141
     13140     13139     13142     13141     13139     13142     13142     13145     13146
     13142     13145     13147     13142     13145     13148     13143     13142     13144
     13143     13142     13145     13144     13142     13145     13145     13148     13149
     13145     13148     13150     13145     13148     13151     13146     13145     13147
     13146     13145     13148     13147     13145     13148     13148     13151     13152
     13148     13151     13153     13148     13151     13154     13149     13148     13150
     13149     13148     13151     13150     13148     13151     13151     13154     13155
     13151     13154     13156     13151     13154     13157     13152     13151     13153
     13152     13151     13154     13153     13151     13154     13155     13154     13156
     13155     13154     13157     13156     13154     13157     13158     13161     13162
     13158     13161     13163     13158     13161     13164     13159     13158     13160
     13159     13158     13161     13160     13158     13161     13161     13164     13165
     13161     13164     13166     13161     13164     13167     13162     13161     13163
     13162     13161     13164     13163     13161     13164     13164     13167     13168
     13164     13167     13169     13164     13167     13170     13165     13164     13166
     13165     13164     13167     13166     13164     13167     13167     13170     13171
     13167     13170     13172     13167     13170     13173     13168     13167     13169
     13168     13167     13170     13169     13167     13170     13170     13173     13174
     13170     13173     13175     13170     13173     13176     13171     13170     13172
     13171     13170     13173     13172     13170     13173     13173     13176     13177
     13173     13176     13178     13173     13176     13179     13174     13173     13175
     13174     13173     13176     13175     13173     13176     13176     13179     13180
     13176     13179     13181     13176     13179     13182     13177     13176     13178
     13177     13176     13179     13178     13176     13179     13179     13182     13183
     13179     13182     13184     13179     13182     13185     13180     13179     13181
     13180     13179     13182     13181     13179     13182     13182     13185     13186
     13182     13185     13187     13182     13185     13188     13183     13182     13184
     13183     13182     13185     13184     13182     13185     13185     13188     13189
     13185     13188     13190     13185     13188     13191     13186     13185     13187
     13186     13185     13188     13187     13185     13188     13188     13191     13192
     13188     13191     13193     13188     13191     13194     13189     13188     13190
     13189     13188     13191     13190     13188     13191     13191     13194     13195
     13191     13194     13196     13191     13194     13197     13192     13191     13193
     13192     13191     13194     13193     13191     13194     13194     13197     13198
     13194     13197     13199     13194     13197     13200     13195     13194     13196
     13195     13194     13197     13196     13194     13197     13198     13197     13199
     13198     13197     13200     13199     13197     13200     13201     13202     13203
     13201     13202     13204     13201     13202     13217     13201     13205     13206
     13201     13205     13207     13201     13205     13208     13201     13209     13210
     13201     13209     13211     13201     13209     13212     13201     13213     13214
     13201     13213     13215     13201     13213     13216     13202     13201     13205
     13202     13201     13209     13202     13201     13213     13202     13217     13218
     13202     13217     13219     13202     13217     13223     13203     13202     13204
     13203     13202     13217     13204     13202     13217     13205     13201     13209
     13205     13201     13213     13206     13205     13207     13206     13205     13208
     13207     13205     13208     13209     13201     13213     13210     13209     13211
     13210     13209     13212     13211     13209     13212     13214     13213     13215
     13214     13213     13216     13215     13213     13216     13217     13223     13220
     13218     13217     13219     13218     13217     13223     13219     13217     13223
     13220     13224     13225     13221     13220     13222     13221     13220     13223
     13221     13220     13224     13222     13220     13223     13222     13220     13224
     13223     13220     13224     13224     13225     13226     13224     13225     13227
     13224     13225     13228     13225     13228     13229     13225     13228     13230
     13225     13228     13236     13226     13225     13227     13226     13225     13228
     13227     13225     13228     13228     13230     13231     13228     13236     13237
     13228     13236     13238     13228     13236     13239     13229     13228     13230
     13229     13228     13236     13230     13228     13236     13230     13231     13232
     13230     13231     13233     13231     13233     13234     13231     13233     13235
     13231     13233     13245     13232     13231     13233     13233     13245     13246
     13233     13245     13247     13233     13245     13248     13234     13233     13235
     13234     13233     13245     13235     13233     13245     13236     13239     13240
     13237     13236     13238     13237     13236     13239     13238     13236     13239
     13239     13240     13241     13239     13240     13242     13240     13242     13243
     13240     13242     13244     13240     13242     13292     13241     13240     13242
     13242     13292     13293     13242     13292     13294     13242     13292     13295
     13243     13242     13244     13243     13242     13292     13244     13242     13292
     13245     13248     13249     13245     13248     13250     13245     13248     13251
     13246     13245     13247     13246     13245     13248     13247     13245     13248
     13248     13251     13252     13248     13251     13253     13248     13251     13254
     13249     13248     13250     13249     13248     13251     13250     13248     13251
     13251     13254     13255     13251     13254     13256     13251     13254     13257
     13252     13251     13253     13252     13251     13254     13253     13251     13254
     13254     13257     13258     13254     13257     13259     13254     13257     13260
     13255     13254     13256     13255     13254     13257     13256     13254     13257
     13257     13260     13261     13257     13260     13262     13257     13260     13263
     13258     13257     13259     13258     13257     13260     13259     13257     13260
     13260     13263     13264     13260     13263     13265     13261     13260     13262
     13261     13260     13263     13262     13260     13263     13263     13265     13266
     13263     13265     13267     13264     13263     13265     13265     13267     13268
     13265     13267     13269     13265     13267     13270     13266     13265     13267
     13267     13270     13271     13267     13270     13272     13267     13270     13273
     13268     13267     13269     13268     13267     13270     13269     13267     13270
     13270     13273     13274     13270     13273     13275     13270     13273     13276
     13271     13270     13272     13271     13270     13273     13272     13270     13273
     13273     13276     13277     13273     13276     13278     13273     13276     13279
     13274     13273     13275     13274     13273     13276     13275     13273     13276
     13276     13279     13280     13276     13279     13281     13276     13279     13282
     13277     13276     13278     13277     13276     13279     13278     13276     13279
     13279     13282     13283     13279     13282     13284     13279     13282     13285
     13280     13279     13281     13280     13279     13282     13281     13279     13282
     13282     13285     13286     13282     13285     13287     13282     13285     13288
     13283     13282     13284     13283     13282     13285     13284     13282     13285
     13285     13288     13289     13285     13288     13290     13285     13288     13291
     13286     13285     13287     13286     13285     13288     13287     13285     13288
     13289     13288     13290     13289     13288     13291     13290     13288     13291
     13292     13295     13296     13292     13295     13297     13292     13295     13298
     13293     13292     13294     13293     13292     13295     13294     13292     13295
     13295     13298     13299     13295     13298     13300     13295     13298     13301
     13296     13295     13297     13296     13295     13298     13297     13295     13298
     13298     13301     13302     13298     13301     13303     13298     13301     13304
     13299     13298     13300     13299     13298     13301     13300     13298     13301
     13301     13304     13305     13301     13304     13306     13301     13304     13307
     13302     13301     13303     13302     13301     13304     13303     13301     13304
     13304     13307     13308     13304     13307     13309     13304     13307     13310
     13305     13304     13306     13305     13304     13307     13306     13304     13307
     13307     13310     13311     13307     13310     13312     13307     13310     13313
     13308     13307     13309     13308     13307     13310     13309     13307     13310
     13310     13313     13314     13310     13313     13315     13310     13313     13316
     13311     13310     13312     13311     13310     13313     13312     13310     13313
     13313     13316     13317     13313     13316     13318     13313     13316     13319
     13314     13313     13315     13314     13313     13316     13315     13313     13316
     13316     13319     13320     13316     13319     13321     13316     13319     13322
     13317     13316     13318     13317     13316     13319     13318     13316     13319
     13319     13322     13323     13319     13322     13324     13319     13322     13325
     13320     13319     13321     13320     13319     13322     13321     13319     13322
     13322     13325     13326     13322     13325     13327     13322     13325     13328
     13323     13322     13324     13323     13322     13325     13324     13322     13325
     13325     13328     13329     13325     13328     13330     13325     13328     13331
     13326     13325     13327     13326     13325     13328     13327     13325     13328
     13328     13331     13332     13328     13331     13333     13328     13331     13334
     13329     13328     13330     13329     13328     13331     13330     13328     13331
     13332     13331     13333     13332     13331     13334     13333     13331     13334
     13335     13336     13337     13335     13336     13338     13335     13336     13351
     13335     13339     13340     13335     13339     13341     13335     13339     13342
     13335     13343     13344     13335     13343     13345     13335     13343     13346
     13335     13347     13348     13335     13347     13349     13335     13347     13350
     13336     13335     13339     13336     13335     13343     13336     13335     13347
     13336     13351     13352     13336     13351     13353     13336     13351     13357
     13337     13336     13338     13337     13336     13351     13338     13336     13351
     13339     13335     13343     13339     13335     13347     13340     13339     13341
     13340     13339     13342     13341     13339     13342     13343     13335     13347
     13344     13343     13345     13344     13343     13346     13345     13343     13346
     13348     13347     13349     13348     13347     13350     13349     13347     13350
     13351     13357     13354     13352     13351     13353     13352     13351     13357
     13353     13351     13357     13354     13358     13359     13355     13354     13356
     13355     13354     13357     13355     13354     13358     13356     13354     13357
     13356     13354     13358     13357     13354     13358     13358     13359     13360
     13358     13359     13361     13358     13359     13362     13359     13362     13363
     13359     13362     13364     13359     13362     13370     13360     13359     13361
     13360     13359     13362     13361     13359     13362     13362     13364     13365
     13362     13370     13371     13362     13370     13372     13362     13370     13373
     13363     13362     13364     13363     13362     13370     13364     13362     13370
     13364     13365     13366     13364     13365     13367     13365     13367     13368
     13365     13367     13369     13365     13367     13379     13366     13365     13367
     13367     13379     13380     13367     13379     13381     13367     13379     13382
     13368     13367     13369     13368     13367     13379     13369     13367     13379
     13370     13373     13374     13371     13370     13372     13371     13370     13373
     13372     13370     13373     13373     13374     13375     13373     13374     13376
     13374     13376     13377     13374     13376     13378     13374     13376     13426
     13375     13374     13376     13376     13426     13427     13376     13426     13428
     13376     13426     13429     13377     13376     13378     13377     13376     13426
     13378     13376     13426     13379     13382     13383     13379     13382     13384
     13379     13382     13385     13380     13379     13381     13380     13379     13382
     13381     13379     13382     13382     13385     13386     13382     13385     13387
     13382     13385     13388     13383     13382     13384     13383     13382     13385
     13384     13382     13385     13385     13388     13389     13385     13388     13390
     13385     13388     13391     13386     13385     13387     13386     13385     13388
     13387     13385     13388     13388     13391     13392     13388     13391     13393
     13388     13391     13394     13389     13388     13390     13389     13388     13391
     13390     13388     13391     13391     13394     13395     13391     13394     13396
     13391     13394     13397     13392     13391     13393     13392     13391     13394
     13393     13391     13394     13394     13397     13398     13394     13397     13399
     13395     13394     13396     13395     13394     13397     13396     13394     13397
     13397     13399     13400     13397     13399     13401     13398     13397     13399
     13399     13401     13402     13399     13401     13403     13399     13401     13404
     13400     13399     13401     13401     13404     13405     13401     13404     13406
     13401     13404     13407     13402     13401     13403     13402     13401     13404
     13403     13401     13404     13404     13407     13408     13404     13407     13409
     13404     13407     13410     13405     13404     13406     13405     13404     13407
     13406     13404     13407     13407     13410     13411     13407     13410     13412
     13407     13410     13413     13408     13407     13409     13408     13407     13410
     13409     13407     13410     13410     13413     13414     13410     13413     13415
     13410     13413     13416     13411     13410     13412     13411     13410     13413
     13412     13410     13413     13413     13416     13417     13413     13416     13418
     13413     13416     13419     13414     13413     13415     13414     13413     13416
     13415     13413     13416     13416     13419     13420     13416     13419     13421
     13416     13419     13422     13417     13416     13418     13417     13416     13419
     13418     13416     13419     13419     13422     13423     13419     13422     13424
     13419     13422     13425     13420     13419     13421     13420     13419     13422
     13421     13419     13422     13423     13422     13424     13423     13422     13425
     13424     13422     13425     13426     13429     13430     13426     13429     13431
     13426     13429     13432     13427     13426     13428     13427     13426     13429
     13428     13426     13429     13429     13432     13433     13429     13432     13434
     13429     13432     13435     13430     13429     13431     13430     13429     13432
     13431     13429     13432     13432     13435     13436     13432     13435     13437
     13432     13435     13438     13433     13432     13434     13433     13432     13435
     13434     13432     13435     13435     13438     13439     13435     13438     13440
     13435     13438     13441     13436     13435     13437     13436     13435     13438
     13437     13435     13438     13438     13441     13442     13438     13441     13443
     13438     13441     13444     13439     13438     13440     13439     13438     13441
     13440     13438     13441     13441     13444     13445     13441     13444     13446
     13441     13444     13447     13442     13441     13443     13442     13441     13444
     13443     13441     13444     13444     13447     13448     13444     13447     13449
     13444     13447     13450     13445     13444     13446     13445     13444     13447
     13446     13444     13447     13447     13450     13451     13447     13450     13452
     13447     13450     13453     13448     13447     13449     13448     13447     13450
     13449     13447     13450     13450     13453     13454     13450     13453     13455
     13450     13453     13456     13451     13450     13452     13451     13450     13453
     13452     13450     13453     13453     13456     13457     13453     13456     13458
     13453     13456     13459     13454     13453     13455     13454     13453     13456
     13455     13453     13456     13456     13459     13460     13456     13459     13461
     13456     13459     13462     13457     13456     13458     13457     13456     13459
     13458     13456     13459     13459     13462     13463     13459     13462     13464
     13459     13462     13465     13460     13459     13461     13460     13459     13462
     13461     13459     13462     13462     13465     13466     13462     13465     13467
     13462     13465     13468     13463     13462     13464     13463     13462     13465
     13464     13462     13465     13466     13465     13467     13466     13465     13468
     13467     13465     13468

     35796 !NPHI: dihedrals
         1         5         8         9         1         5         8        10
         2         1         5         6         2         1         5         7
         2         1         5         8         3         1         5         6
         3         1         5         7         3         1         5         8
         4         1         5         6         4         1         5         7
         4         1         5         8         5         8        10        11
         5         8        10        12         6         5         8         9
         6         5         8        10         7         5         8         9
         7         5         8        10         8        10        12        13
         8        10        12        14         8        10        12        27
         9         8        10        11         9         8        10        12
        10        12        14        15        10        12        14        16
        10        12        14        20        10        12        27        28
        10        12        27        29        11        10        12        13
        11        10        12        14        11        10        12        27
        12        14        16        17        12        14        16        18
        12        14        16        19        12        14        20        21
        12        14        20        22        12        14        20        23
        12        27        29        30        12        27        29        31
        13        12        14        15        13        12        14        16
        13        12        14        20        13        12        27        28
        13        12        27        29        14        12        27        28
        14        12        27        29        14        20        23        24
        14        20        23        25        14        20        23        26
        15        14        12        27        15        14        16        17
        15        14        16        18        15        14        16        19
        15        14        20        21        15        14        20        22
        15        14        20        23        16        14        12        27
        16        14        20        21        16        14        20        22
        16        14        20        23        17        16        14        20
        18        16        14        20        19        16        14        20
        20        14        12        27        21        20        23        24
        21        20        23        25        21        20        23        26
        22        20        23        24        22        20        23        25
        22        20        23        26        27        29        31        32
        27        29        31        33        27        29        31        34
        28        27        29        30        28        27        29        31
        29        31        34        35        29        31        34        36
        30        29        31        32        30        29        31        33
        30        29        31        34        31        34        36        37
        31        34        36        38        32        31        34        35
        32        31        34        36        33        31        34        35
        33        31        34        36        34        36        38        39
        34        36        38        40        34        36        38        44
        35        34        36        37        35        34        36        38
        36        38        40        41        36        38        40        42
        36        38        40        43        36        38        44        45
        36        38        44        46        37        36        38        39
        37        36        38        40        37        36        38        44
        38        44        46        47        38        44        46        48
        39        38        40        41        39        38        40        42
        39        38        40        43        39        38        44        45
        39        38        44        46        40        38        44        45
        40        38        44        46        41        40        38        44
        42        40        38        44        43        40        38        44
        44        46        48        49        44        46        48        50
        44        46        48        60        45        44        46        47
        45        44        46        48        46        48        50        51
        46        48        50        52        46        48        50        56
        46        48        60        61        46        48        60        62
        47        46        48        49        47        46        48        50
        47        46        48        60        48        50        52        53
        48        50        52        54        48        50        52        55
        48        50        56        57        48        50        56        58
        48        50        56        59        48        60        62        63
        48        60        62        64        49        48        50        51
        49        48        50        52        49        48        50        56
        49        48        60        61        49        48        60        62
        50        48        60        61        50        48        60        62
        51        50        48        60        51        50        52        53
        51        50        52        54        51        50        52        55
        51        50        56        57        51        50        56        58
        51        50        56        59        52        50        48        60
        52        50        56        57        52        50        56        58
        52        50        56        59        53        52        50        56
        54        52        50        56        55        52        50        56
        56        50        48        60        60        62        64        65
        60        62        64        66        60        62        64        79
        61        60        62        63        61        60        62        64
        62        64        66        67        62        64        66        68
        62        64        66        69        62        64        79        80
        62        64        79        81        63        62        64        65
        63        62        64        66        63        62        64        79
        64        66        69        70        64        66        69        71
        64        66        69        75        64        79        81        82
        64        79        81        83        65        64        66        67
        65        64        66        68        65        64        66        69
        65        64        79        80        65        64        79        81
        66        64        79        80        66        64        79        81
        66        69        71        72        66        69        71        73
        66        69        71        74        66        69        75        76
        66        69        75        77        66        69        75        78
        67        66        64        79        67        66        69        70
        67        66        69        71        67        66        69        75
        68        66        64        79        68        66        69        70
        68        66        69        71        68        66        69        75
        69        66        64        79        70        69        71        72
        70        69        71        73        70        69        71        74
        70        69        75        76        70        69        75        77
        70        69        75        78        71        69        75        76
        71        69        75        77        71        69        75        78
        72        71        69        75        73        71        69        75
        74        71        69        75        79        81        83        84
        79        81        83        85        79        81        83       101
        80        79        81        82        80        79        81        83
        81        83        85        86        81        83        85        87
        81        83        85        88        81        83       101       102
        81        83       101       103        82        81        83        84
        82        81        83        85        82        81        83       101
        83        85        88        89        83        85        88        90
        83        85        88        91        83       101       103       104
        83       101       103       105        84        83        85        86
        84        83        85        87        84        83        85        88
        84        83       101       102        84        83       101       103
        85        83       101       102        85        83       101       103
        85        88        91        92        85        88        91        93
        85        88        91        94        86        85        83       101
        86        85        88        89        86        85        88        90
        86        85        88        91        87        85        83       101
        87        85        88        89        87        85        88        90
        87        85        88        91        88        85        83       101
        88        91        94        95        88        91        94        96
        88        91        94        97        89        88        91        92
        89        88        91        93        89        88        91        94
        90        88        91        92        90        88        91        93
        90        88        91        94        91        94        97        98
        91        94        97        99        91        94        97       100
        92        91        94        95        92        91        94        96
        92        91        94        97        93        91        94        95
        93        91        94        96        93        91        94        97
        95        94        97        98        95        94        97        99
        95        94        97       100        96        94        97        98
        96        94        97        99        96        94        97       100
       101       103       105       106       101       103       105       107
       101       103       105       117       102       101       103       104
       102       101       103       105       103       105       107       108
       103       105       107       109       103       105       107       113
       103       105       117       118       103       105       117       119
       104       103       105       106       104       103       105       107
       104       103       105       117       105       107       109       110
       105       107       109       111       105       107       109       112
       105       107       113       114       105       107       113       115
       105       107       113       116       105       117       119       120
       105       117       119       121       106       105       107       108
       106       105       107       109       106       105       107       113
       106       105       117       118       106       105       117       119
       107       105       117       118       107       105       117       119
       108       107       105       117       108       107       109       110
       108       107       109       111       108       107       109       112
       108       107       113       114       108       107       113       115
       108       107       113       116       109       107       105       117
       109       107       113       114       109       107       113       115
       109       107       113       116       110       109       107       113
       111       109       107       113       112       109       107       113
       113       107       105       117       117       119       121       122
       117       119       121       123       117       119       121       136
       118       117       119       120       118       117       119       121
       119       121       123       124       119       121       123       125
       119       121       123       126       119       121       136       137
       119       121       136       138       120       119       121       122
       120       119       121       123       120       119       121       136
       121       123       126       127       121       123       126       128
       121       123       126       132       121       136       138       139
       121       136       138       140       122       121       123       124
       122       121       123       125       122       121       123       126
       122       121       136       137       122       121       136       138
       123       121       136       137       123       121       136       138
       123       126       128       129       123       126       128       130
       123       126       128       131       123       126       132       133
       123       126       132       134       123       126       132       135
       124       123       121       136       124       123       126       127
       124       123       126       128       124       123       126       132
       125       123       121       136       125       123       126       127
       125       123       126       128       125       123       126       132
       126       123       121       136       127       126       128       129
       127       126       128       130       127       126       128       131
       127       126       132       133       127       126       132       134
       127       126       132       135       128       126       132       133
       128       126       132       134       128       126       132       135
       129       128       126       132       130       128       126       132
       131       128       126       132       136       138       140       141
       136       138       140       142       136       138       140       150
       137       136       138       139       137       136       138       140
       138       140       142       143       138       140       142       144
       138       140       142       146       138       140       150       151
       138       140       150       152       139       138       140       141
       139       138       140       142       139       138       140       150
       140       142       144       145       140       142       146       147
       140       142       146       148       140       142       146       149
       140       150       152       153       140       150       152       154
       141       140       142       143       141       140       142       144
       141       140       142       146       141       140       150       151
       141       140       150       152       142       140       150       151
       142       140       150       152       143       142       140       150
       143       142       144       145       143       142       146       147
       143       142       146       148       143       142       146       149
       144       142       140       150       144       142       146       147
       144       142       146       148       144       142       146       149
       145       144       142       146       146       142       140       150
       150       152       154       155       150       152       154       156
       150       152       154       164       151       150       152       153
       151       150       152       154       152       154       156       157
       152       154       156       158       152       154       156       160
       152       154       164       165       152       154       164       166
       153       152       154       155       153       152       154       156
       153       152       154       164       154       156       158       159
       154       156       160       161       154       156       160       162
       154       156       160       163       154       164       166       167
       154       164       166       168       155       154       156       157
       155       154       156       158       155       154       156       160
       155       154       164       165       155       154       164       166
       156       154       164       165       156       154       164       166
       157       156       154       164       157       156       158       159
       157       156       160       161       157       156       160       162
       157       156       160       163       158       156       154       164
       158       156       160       161       158       156       160       162
       158       156       160       163       159       158       156       160
       160       156       154       164       164       166       168       169
       164       166       168       170       164       166       168       171
       165       164       166       167       165       164       166       168
       166       168       171       172       166       168       171       173
       167       166       168       169       167       166       168       170
       167       166       168       171       168       171       173       174
       168       171       173       175       169       168       171       172
       169       168       171       173       170       168       171       172
       170       168       171       173       171       173       175       176
       171       173       175       177       171       173       175       190
       172       171       173       174       172       171       173       175
       173       175       177       178       173       175       177       179
       173       175       177       180       173       175       190       191
       173       175       190       192       174       173       175       176
       174       173       175       177       174       173       175       190
       175       177       180       181       175       177       180       182
       175       177       180       186       175       190       192       193
       175       190       192       196       176       175       177       178
       176       175       177       179       176       175       177       180
       176       175       190       191       176       175       190       192
       177       175       190       191       177       175       190       192
       177       180       182       183       177       180       182       184
       177       180       182       185       177       180       186       187
       177       180       186       188       177       180       186       189
       178       177       175       190       178       177       180       181
       178       177       180       182       178       177       180       186
       179       177       175       190       179       177       180       181
       179       177       180       182       179       177       180       186
       180       177       175       190       181       180       182       183
       181       180       182       184       181       180       182       185
       181       180       186       187       181       180       186       188
       181       180       186       189       182       180       186       187
       182       180       186       188       182       180       186       189
       183       182       180       186       184       182       180       186
       185       182       180       186       190       192       193       194
       190       192       193       195       190       192       193       201
       190       192       196       197       190       192       196       198
       190       192       196       204       191       190       192       193
       191       190       192       196       192       193       201       198
       192       193       201       202       192       193       201       203
       192       196       198       199       192       196       198       200
       192       196       198       201       192       196       204       205
       192       196       204       206       193       192       196       197
       193       192       196       198       193       192       196       204
       193       201       198       196       193       201       198       199
       193       201       198       200       194       193       192       196
       194       193       201       198       194       193       201       202
       194       193       201       203       195       193       192       196
       195       193       201       198       195       193       201       202
       195       193       201       203       196       192       193       201
       196       198       201       202       196       198       201       203
       196       204       206       207       196       204       206       208
       197       196       198       199       197       196       198       200
       197       196       198       201       197       196       204       205
       197       196       204       206       198       196       204       205
       198       196       204       206       199       198       196       204
       199       198       201       202       199       198       201       203
       200       198       196       204       200       198       201       202
       200       198       201       203       201       198       196       204
       204       206       208       209       204       206       208       210
       204       206       208       214       205       204       206       207
       205       204       206       208       206       208       210       211
       206       208       210       212       206       208       210       213
       206       208       214       215       206       208       214       216
       207       206       208       209       207       206       208       210
       207       206       208       214       208       214       216       217
       208       214       216       218       209       208       210       211
       209       208       210       212       209       208       210       213
       209       208       214       215       209       208       214       216
       210       208       214       215       210       208       214       216
       211       210       208       214       212       210       208       214
       213       210       208       214       214       216       218       219
       214       216       218       220       214       216       218       233
       215       214       216       217       215       214       216       218
       216       218       220       221       216       218       220       222
       216       218       220       223       216       218       233       234
       216       218       233       235       217       216       218       219
       217       216       218       220       217       216       218       233
       218       220       223       224       218       220       223       225
       218       220       223       229       218       233       235       236
       218       233       235       237       219       218       220       221
       219       218       220       222       219       218       220       223
       219       218       233       234       219       218       233       235
       220       218       233       234       220       218       233       235
       220       223       225       226       220       223       225       227
       220       223       225       228       220       223       229       230
       220       223       229       231       220       223       229       232
       221       220       218       233       221       220       223       224
       221       220       223       225       221       220       223       229
       222       220       218       233       222       220       223       224
       222       220       223       225       222       220       223       229
       223       220       218       233       224       223       225       226
       224       223       225       227       224       223       225       228
       224       223       229       230       224       223       229       231
       224       223       229       232       225       223       229       230
       225       223       229       231       225       223       229       232
       226       225       223       229       227       225       223       229
       228       225       223       229       233       235       237       238
       233       235       237       239       233       235       237       252
       234       233       235       236       234       233       235       237
       235       237       239       240       235       237       239       241
       235       237       239       245       235       237       252       253
       235       237       252       254       236       235       237       238
       236       235       237       239       236       235       237       252
       237       239       241       242       237       239       241       243
       237       239       241       244       237       239       245       246
       237       239       245       247       237       239       245       248
       237       252       254       255       237       252       254       256
       238       237       239       240       238       237       239       241
       238       237       239       245       238       237       252       253
       238       237       252       254       239       237       252       253
       239       237       252       254       239       245       248       249
       239       245       248       250       239       245       248       251
       240       239       237       252       240       239       241       242
       240       239       241       243       240       239       241       244
       240       239       245       246       240       239       245       247
       240       239       245       248       241       239       237       252
       241       239       245       246       241       239       245       247
       241       239       245       248       242       241       239       245
       243       241       239       245       244       241       239       245
       245       239       237       252       246       245       248       249
       246       245       248       250       246       245       248       251
       247       245       248       249       247       245       248       250
       247       245       248       251       252       254       256       257
       252       254       256       258       252       254       256       263
       253       252       254       255       253       252       254       256
       254       256       258       259       254       256       258       260
       254       256       258       261       254       256       263       264
       254       256       263       265       255       254       256       257
       255       254       256       258       255       254       256       263
       256       258       261       262       256       263       265       266
       256       263       265       267       257       256       258       259
       257       256       258       260       257       256       258       261
       257       256       263       264       257       256       263       265
       258       256       263       264       258       256       263       265
       259       258       256       263       259       258       261       262
       260       258       256       263       260       258       261       262
       261       258       256       263       263       265       267       268
       263       265       267       269       263       265       267       287
       264       263       265       266       264       263       265       267
       265       267       269       270       265       267       269       271
       265       267       269       272       265       267       287       288
       265       267       287       289       266       265       267       268
       266       265       267       269       266       265       267       287
       267       269       272       273       267       269       272       278
       267       287       289       290       267       287       289       291
       268       267       269       270       268       267       269       271
       268       267       269       272       268       267       287       288
       268       267       287       289       269       267       287       288
       269       267       287       289       269       272       273       274
       269       272       273       275       269       272       278       277
       269       272       278       279       270       269       267       287
       270       269       272       273       270       269       272       278
       271       269       267       287       271       269       272       273
       271       269       272       278       272       269       267       287
       272       273       275       276       272       273       275       277
       272       278       277       275       272       278       277       283
       272       278       279       280       272       278       279       281
       273       272       278       277       273       272       278       279
       273       275       277       278       273       275       277       283
       274       273       272       278       274       273       275       276
       274       273       275       277       275       273       272       278
       275       277       278       279       275       277       283       284
       275       277       283       285       276       275       277       278
       276       275       277       283       277       278       279       280
       277       278       279       281       277       283       285       281
       277       283       285       286       278       277       283       284
       278       277       283       285       278       279       281       282
       278       279       281       285       279       278       277       283
       279       281       285       283       279       281       285       286
       280       279       281       282       280       279       281       285
       281       285       283       284       282       281       285       283
       282       281       285       286       284       283       285       286
       287       289       291       292       287       289       291       293
       287       289       291       306       288       287       289       290
       288       287       289       291       289       291       293       294
       289       291       293       295       289       291       293       299
       289       291       306       307       289       291       306       308
       290       289       291       292       290       289       291       293
       290       289       291       306       291       293       295       296
       291       293       295       297       291       293       295       298
       291       293       299       300       291       293       299       301
       291       293       299       302       291       306       308       309
       291       306       308       310       292       291       293       294
       292       291       293       295       292       291       293       299
       292       291       306       307       292       291       306       308
       293       291       306       307       293       291       306       308
       293       299       302       303       293       299       302       304
       293       299       302       305       294       293       291       306
       294       293       295       296       294       293       295       297
       294       293       295       298       294       293       299       300
       294       293       299       301       294       293       299       302
       295       293       291       306       295       293       299       300
       295       293       299       301       295       293       299       302
       296       295       293       299       297       295       293       299
       298       295       293       299       299       293       291       306
       300       299       302       303       300       299       302       304
       300       299       302       305       301       299       302       303
       301       299       302       304       301       299       302       305
       306       308       310       311       306       308       310       312
       306       308       310       328       307       306       308       309
       307       306       308       310       308       310       312       313
       308       310       312       314       308       310       312       315
       308       310       328       329       308       310       328       330
       309       308       310       311       309       308       310       312
       309       308       310       328       310       312       315       316
       310       312       315       317       310       312       315       318
       310       328       330       331       310       328       330       332
       311       310       312       313       311       310       312       314
       311       310       312       315       311       310       328       329
       311       310       328       330       312       310       328       329
       312       310       328       330       312       315       318       319
       312       315       318       320       312       315       318       321
       313       312       310       328       313       312       315       316
       313       312       315       317       313       312       315       318
       314       312       310       328       314       312       315       316
       314       312       315       317       314       312       315       318
       315       312       310       328       315       318       321       322
       315       318       321       323       315       318       321       324
       316       315       318       319       316       315       318       320
       316       315       318       321       317       315       318       319
       317       315       318       320       317       315       318       321
       318       321       324       325       318       321       324       326
       318       321       324       327       319       318       321       322
       319       318       321       323       319       318       321       324
       320       318       321       322       320       318       321       323
       320       318       321       324       322       321       324       325
       322       321       324       326       322       321       324       327
       323       321       324       325       323       321       324       326
       323       321       324       327       328       330       332       333
       328       330       332       334       328       330       332       352
       329       328       330       331       329       328       330       332
       330       332       334       335       330       332       334       336
       330       332       334       337       330       332       352       353
       330       332       352       354       331       330       332       333
       331       330       332       334       331       330       332       352
       332       334       337       338       332       334       337       339
       332       334       337       340       332       352       354       355
       332       352       354       356       333       332       334       335
       333       332       334       336       333       332       334       337
       333       332       352       353       333       332       352       354
       334       332       352       353       334       332       352       354
       334       337       340       341       334       337       340       342
       334       337       340       343       335       334       332       352
       335       334       337       338       335       334       337       339
       335       334       337       340       336       334       332       352
       336       334       337       338       336       334       337       339
       336       334       337       340       337       334       332       352
       337       340       343       344       337       340       343       345
       338       337       340       341       338       337       340       342
       338       337       340       343       339       337       340       341
       339       337       340       342       339       337       340       343
       340       343       345       346       340       343       345       349
       341       340       343       344       341       340       343       345
       342       340       343       344       342       340       343       345
       343       345       346       347       343       345       346       348
       343       345       349       350       343       345       349       351
       344       343       345       346       344       343       345       349
       346       345       349       350       346       345       349       351
       347       346       345       349       348       346       345       349
       352       354       356       357       352       354       356       358
       352       354       356       374       353       352       354       355
       353       352       354       356       354       356       358       359
       354       356       358       360       354       356       358       361
       354       356       374       375       354       356       374       376
       355       354       356       357       355       354       356       358
       355       354       356       374       356       358       361       362
       356       358       361       363       356       358       361       364
       356       374       376       377       356       374       376       378
       357       356       358       359       357       356       358       360
       357       356       358       361       357       356       374       375
       357       356       374       376       358       356       374       375
       358       356       374       376       358       361       364       365
       358       361       364       366       358       361       364       367
       359       358       356       374       359       358       361       362
       359       358       361       363       359       358       361       364
       360       358       356       374       360       358       361       362
       360       358       361       363       360       358       361       364
       361       358       356       374       361       364       367       368
       361       364       367       369       361       364       367       370
       362       361       364       365       362       361       364       366
       362       361       364       367       363       361       364       365
       363       361       364       366       363       361       364       367
       364       367       370       371       364       367       370       372
       364       367       370       373       365       364       367       368
       365       364       367       369       365       364       367       370
       366       364       367       368       366       364       367       369
       366       364       367       370       368       367       370       371
       368       367       370       372       368       367       370       373
       369       367       370       371       369       367       370       372
       369       367       370       373       374       376       378       379
       374       376       378       380       374       376       378       398
       375       374       376       377       375       374       376       378
       376       378       380       381       376       378       380       382
       376       378       380       383       376       378       398       399
       376       378       398       400       377       376       378       379
       377       376       378       380       377       376       378       398
       378       380       383       384       378       380       383       385
       378       380       383       386       378       398       400       401
       378       398       400       402       379       378       380       381
       379       378       380       382       379       378       380       383
       379       378       398       399       379       378       398       400
       380       378       398       399       380       378       398       400
       380       383       386       387       380       383       386       388
       380       383       386       389       381       380       378       398
       381       380       383       384       381       380       383       385
       381       380       383       386       382       380       378       398
       382       380       383       384       382       380       383       385
       382       380       383       386       383       380       378       398
       383       386       389       390       383       386       389       391
       384       383       386       387       384       383       386       388
       384       383       386       389       385       383       386       387
       385       383       386       388       385       383       386       389
       386       389       391       392       386       389       391       395
       387       386       389       390       387       386       389       391
       388       386       389       390       388       386       389       391
       389       391       392       393       389       391       392       394
       389       391       395       396       389       391       395       397
       390       389       391       392       390       389       391       395
       392       391       395       396       392       391       395       397
       393       392       391       395       394       392       391       395
       398       400       402       403       398       400       402       404
       398       400       402       415       399       398       400       401
       399       398       400       402       400       402       404       405
       400       402       404       406       400       402       404       407
       400       402       415       416       400       402       415       417
       401       400       402       403       401       400       402       404
       401       400       402       415       402       404       407       408
       402       404       407       409       402       404       407       410
       402       415       417       418       402       415       417       419
       403       402       404       405       403       402       404       406
       403       402       404       407       403       402       415       416
       403       402       415       417       404       402       415       416
       404       402       415       417       404       407       410       411
       404       407       410       412       405       404       402       415
       405       404       407       408       405       404       407       409
       405       404       407       410       406       404       402       415
       406       404       407       408       406       404       407       409
       406       404       407       410       407       404       402       415
       407       410       412       413       407       410       412       414
       408       407       410       411       408       407       410       412
       409       407       410       411       409       407       410       412
       411       410       412       413       411       410       412       414
       415       417       419       420       415       417       419       421
       415       417       419       432       416       415       417       418
       416       415       417       419       417       419       421       422
       417       419       421       423       417       419       421       424
       417       419       432       433       417       419       432       434
       418       417       419       420       418       417       419       421
       418       417       419       432       419       421       424       425
       419       421       424       426       419       421       424       427
       419       432       434       435       419       432       434       436
       420       419       421       422       420       419       421       423
       420       419       421       424       420       419       432       433
       420       419       432       434       421       419       432       433
       421       419       432       434       421       424       427       428
       421       424       427       429       422       421       419       432
       422       421       424       425       422       421       424       426
       422       421       424       427       423       421       419       432
       423       421       424       425       423       421       424       426
       423       421       424       427       424       421       419       432
       424       427       429       430       424       427       429       431
       425       424       427       428       425       424       427       429
       426       424       427       428       426       424       427       429
       428       427       429       430       428       427       429       431
       433       432       434       435       433       432       434       436
       437       441       444       445       437       441       444       446
       438       437       441       442       438       437       441       443
       438       437       441       444       439       437       441       442
       439       437       441       443       439       437       441       444
       440       437       441       442       440       437       441       443
       440       437       441       444       441       444       446       447
       441       444       446       448       442       441       444       445
       442       441       444       446       443       441       444       445
       443       441       444       446       444       446       448       449
       444       446       448       450       444       446       448       463
       445       444       446       447       445       444       446       448
       446       448       450       451       446       448       450       452
       446       448       450       456       446       448       463       464
       446       448       463       465       447       446       448       449
       447       446       448       450       447       446       448       463
       448       450       452       453       448       450       452       454
       448       450       452       455       448       450       456       457
       448       450       456       458       448       450       456       459
       448       463       465       466       448       463       465       467
       449       448       450       451       449       448       450       452
       449       448       450       456       449       448       463       464
       449       448       463       465       450       448       463       464
       450       448       463       465       450       456       459       460
       450       456       459       461       450       456       459       462
       451       450       448       463       451       450       452       453
       451       450       452       454       451       450       452       455
       451       450       456       457       451       450       456       458
       451       450       456       459       452       450       448       463
       452       450       456       457       452       450       456       458
       452       450       456       459       453       452       450       456
       454       452       450       456       455       452       450       456
       456       450       448       463       457       456       459       460
       457       456       459       461       457       456       459       462
       458       456       459       460       458       456       459       461
       458       456       459       462       463       465       467       468
       463       465       467       469       463       465       467       470
       464       463       465       466       464       463       465       467
       465       467       470       471       465       467       470       472
       466       465       467       468       466       465       467       469
       466       465       467       470       467       470       472       473
       467       470       472       474       468       467       470       471
       468       467       470       472       469       467       470       471
       469       467       470       472       470       472       474       475
       470       472       474       476       470       472       474       480
       471       470       472       473       471       470       472       474
       472       474       476       477       472       474       476       478
       472       474       476       479       472       474       480       481
       472       474       480       482       473       472       474       475
       473       472       474       476       473       472       474       480
       474       480       482       483       474       480       482       484
       475       474       476       477       475       474       476       478
       475       474       476       479       475       474       480       481
       475       474       480       482       476       474       480       481
       476       474       480       482       477       476       474       480
       478       476       474       480       479       476       474       480
       480       482       484       485       480       482       484       486
       480       482       484       496       481       480       482       483
       481       480       482       484       482       484       486       487
       482       484       486       488       482       484       486       492
       482       484       496       497       482       484       496       498
       483       482       484       485       483       482       484       486
       483       482       484       496       484       486       488       489
       484       486       488       490       484       486       488       491
       484       486       492       493       484       486       492       494
       484       486       492       495       484       496       498       499
       484       496       498       500       485       484       486       487
       485       484       486       488       485       484       486       492
       485       484       496       497       485       484       496       498
       486       484       496       497       486       484       496       498
       487       486       484       496       487       486       488       489
       487       486       488       490       487       486       488       491
       487       486       492       493       487       486       492       494
       487       486       492       495       488       486       484       496
       488       486       492       493       488       486       492       494
       488       486       492       495       489       488       486       492
       490       488       486       492       491       488       486       492
       492       486       484       496       496       498       500       501
       496       498       500       502       496       498       500       515
       497       496       498       499       497       496       498       500
       498       500       502       503       498       500       502       504
       498       500       502       505       498       500       515       516
       498       500       515       517       499       498       500       501
       499       498       500       502       499       498       500       515
       500       502       505       506       500       502       505       507
       500       502       505       511       500       515       517       518
       500       515       517       519       501       500       502       503
       501       500       502       504       501       500       502       505
       501       500       515       516       501       500       515       517
       502       500       515       516       502       500       515       517
       502       505       507       508       502       505       507       509
       502       505       507       510       502       505       511       512
       502       505       511       513       502       505       511       514
       503       502       500       515       503       502       505       506
       503       502       505       507       503       502       505       511
       504       502       500       515       504       502       505       506
       504       502       505       507       504       502       505       511
       505       502       500       515       506       505       507       508
       506       505       507       509       506       505       507       510
       506       505       511       512       506       505       511       513
       506       505       511       514       507       505       511       512
       507       505       511       513       507       505       511       514
       508       507       505       511       509       507       505       511
       510       507       505       511       515       517       519       520
       515       517       519       521       515       517       519       537
       516       515       517       518       516       515       517       519
       517       519       521       522       517       519       521       523
       517       519       521       524       517       519       537       538
       517       519       537       539       518       517       519       520
       518       517       519       521       518       517       519       537
       519       521       524       525       519       521       524       526
       519       521       524       527       519       537       539       540
       519       537       539       541       520       519       521       522
       520       519       521       523       520       519       521       524
       520       519       537       538       520       519       537       539
       521       519       537       538       521       519       537       539
       521       524       527       528       521       524       527       529
       521       524       527       530       522       521       519       537
       522       521       524       525       522       521       524       526
       522       521       524       527       523       521       519       537
       523       521       524       525       523       521       524       526
       523       521       524       527       524       521       519       537
       524       527       530       531       524       527       530       532
       524       527       530       533       525       524       527       528
       525       524       527       529       525       524       527       530
       526       524       527       528       526       524       527       529
       526       524       527       530       527       530       533       534
       527       530       533       535       527       530       533       536
       528       527       530       531       528       527       530       532
       528       527       530       533       529       527       530       531
       529       527       530       532       529       527       530       533
       531       530       533       534       531       530       533       535
       531       530       533       536       532       530       533       534
       532       530       533       535       532       530       533       536
       537       539       541       542       537       539       541       543
       537       539       541       553       538       537       539       540
       538       537       539       541       539       541       543       544
       539       541       543       545       539       541       543       549
       539       541       553       554       539       541       553       555
       540       539       541       542       540       539       541       543
       540       539       541       553       541       543       545       546
       541       543       545       547       541       543       545       548
       541       543       549       550       541       543       549       551
       541       543       549       552       541       553       555       556
       541       553       555       557       542       541       543       544
       542       541       543       545       542       541       543       549
       542       541       553       554       542       541       553       555
       543       541       553       554       543       541       553       555
       544       543       541       553       544       543       545       546
       544       543       545       547       544       543       545       548
       544       543       549       550       544       543       549       551
       544       543       549       552       545       543       541       553
       545       543       549       550       545       543       549       551
       545       543       549       552       546       545       543       549
       547       545       543       549       548       545       543       549
       549       543       541       553       553       555       557       558
       553       555       557       559       553       555       557       572
       554       553       555       556       554       553       555       557
       555       557       559       560       555       557       559       561
       555       557       559       562       555       557       572       573
       555       557       572       574       556       555       557       558
       556       555       557       559       556       555       557       572
       557       559       562       563       557       559       562       564
       557       559       562       568       557       572       574       575
       557       572       574       576       558       557       559       560
       558       557       559       561       558       557       559       562
       558       557       572       573       558       557       572       574
       559       557       572       573       559       557       572       574
       559       562       564       565       559       562       564       566
       559       562       564       567       559       562       568       569
       559       562       568       570       559       562       568       571
       560       559       557       572       560       559       562       563
       560       559       562       564       560       559       562       568
       561       559       557       572       561       559       562       563
       561       559       562       564       561       559       562       568
       562       559       557       572       563       562       564       565
       563       562       564       566       563       562       564       567
       563       562       568       569       563       562       568       570
       563       562       568       571       564       562       568       569
       564       562       568       570       564       562       568       571
       565       564       562       568       566       564       562       568
       567       564       562       568       572       574       576       577
       572       574       576       578       572       574       576       586
       573       572       574       575       573       572       574       576
       574       576       578       579       574       576       578       580
       574       576       578       582       574       576       586       587
       574       576       586       588       575       574       576       577
       575       574       576       578       575       574       576       586
       576       578       580       581       576       578       582       583
       576       578       582       584       576       578       582       585
       576       586       588       589       576       586       588       590
       577       576       578       579       577       576       578       580
       577       576       578       582       577       576       586       587
       577       576       586       588       578       576       586       587
       578       576       586       588       579       578       576       586
       579       578       580       581       579       578       582       583
       579       578       582       584       579       578       582       585
       580       578       576       586       580       578       582       583
       580       578       582       584       580       578       582       585
       581       580       578       582       582       578       576       586
       586       588       590       591       586       588       590       592
       586       588       590       600       587       586       588       589
       587       586       588       590       588       590       592       593
       588       590       592       594       588       590       592       596
       588       590       600       601       588       590       600       602
       589       588       590       591       589       588       590       592
       589       588       590       600       590       592       594       595
       590       592       596       597       590       592       596       598
       590       592       596       599       590       600       602       603
       590       600       602       604       591       590       592       593
       591       590       592       594       591       590       592       596
       591       590       600       601       591       590       600       602
       592       590       600       601       592       590       600       602
       593       592       590       600       593       592       594       595
       593       592       596       597       593       592       596       598
       593       592       596       599       594       592       590       600
       594       592       596       597       594       592       596       598
       594       592       596       599       595       594       592       596
       596       592       590       600       600       602       604       605
       600       602       604       606       600       602       604       607
       601       600       602       603       601       600       602       604
       602       604       607       608       602       604       607       609
       603       602       604       605       603       602       604       606
       603       602       604       607       604       607       609       610
       604       607       609       611       605       604       607       608
       605       604       607       609       606       604       607       608
       606       604       607       609       607       609       611       612
       607       609       611       613       607       609       611       626
       608       607       609       610       608       607       609       611
       609       611       613       614       609       611       613       615
       609       611       613       616       609       611       626       627
       609       611       626       628       610       609       611       612
       610       609       611       613       610       609       611       626
       611       613       616       617       611       613       616       618
       611       613       616       622       611       626       628       629
       611       626       628       632       612       611       613       614
       612       611       613       615       612       611       613       616
       612       611       626       627       612       611       626       628
       613       611       626       627       613       611       626       628
       613       616       618       619       613       616       618       620
       613       616       618       621       613       616       622       623
       613       616       622       624       613       616       622       625
       614       613       611       626       614       613       616       617
       614       613       616       618       614       613       616       622
       615       613       611       626       615       613       616       617
       615       613       616       618       615       613       616       622
       616       613       611       626       617       616       618       619
       617       616       618       620       617       616       618       621
       617       616       622       623       617       616       622       624
       617       616       622       625       618       616       622       623
       618       616       622       624       618       616       622       625
       619       618       616       622       620       618       616       622
       621       618       616       622       626       628       629       630
       626       628       629       631       626       628       629       637
       626       628       632       633       626       628       632       634
       626       628       632       640       627       626       628       629
       627       626       628       632       628       629       637       634
       628       629       637       638       628       629       637       639
       628       632       634       635       628       632       634       636
       628       632       634       637       628       632       640       641
       628       632       640       642       629       628       632       633
       629       628       632       634       629       628       632       640
       629       637       634       632       629       637       634       635
       629       637       634       636       630       629       628       632
       630       629       637       634       630       629       637       638
       630       629       637       639       631       629       628       632
       631       629       637       634       631       629       637       638
       631       629       637       639       632       628       629       637
       632       634       637       638       632       634       637       639
       632       640       642       643       632       640       642       644
       633       632       634       635       633       632       634       636
       633       632       634       637       633       632       640       641
       633       632       640       642       634       632       640       641
       634       632       640       642       635       634       632       640
       635       634       637       638       635       634       637       639
       636       634       632       640       636       634       637       638
       636       634       637       639       637       634       632       640
       640       642       644       645       640       642       644       646
       640       642       644       650       641       640       642       643
       641       640       642       644       642       644       646       647
       642       644       646       648       642       644       646       649
       642       644       650       651       642       644       650       652
       643       642       644       645       643       642       644       646
       643       642       644       650       644       650       652       653
       644       650       652       654       645       644       646       647
       645       644       646       648       645       644       646       649
       645       644       650       651       645       644       650       652
       646       644       650       651       646       644       650       652
       647       646       644       650       648       646       644       650
       649       646       644       650       650       652       654       655
       650       652       654       656       650       652       654       669
       651       650       652       653       651       650       652       654
       652       654       656       657       652       654       656       658
       652       654       656       659       652       654       669       670
       652       654       669       671       653       652       654       655
       653       652       654       656       653       652       654       669
       654       656       659       660       654       656       659       661
       654       656       659       665       654       669       671       672
       654       669       671       673       655       654       656       657
       655       654       656       658       655       654       656       659
       655       654       669       670       655       654       669       671
       656       654       669       670       656       654       669       671
       656       659       661       662       656       659       661       663
       656       659       661       664       656       659       665       666
       656       659       665       667       656       659       665       668
       657       656       654       669       657       656       659       660
       657       656       659       661       657       656       659       665
       658       656       654       669       658       656       659       660
       658       656       659       661       658       656       659       665
       659       656       654       669       660       659       661       662
       660       659       661       663       660       659       661       664
       660       659       665       666       660       659       665       667
       660       659       665       668       661       659       665       666
       661       659       665       667       661       659       665       668
       662       661       659       665       663       661       659       665
       664       661       659       665       669       671       673       674
       669       671       673       675       669       671       673       688
       670       669       671       672       670       669       671       673
       671       673       675       676       671       673       675       677
       671       673       675       681       671       673       688       689
       671       673       688       690       672       671       673       674
       672       671       673       675       672       671       673       688
       673       675       677       678       673       675       677       679
       673       675       677       680       673       675       681       682
       673       675       681       683       673       675       681       684
       673       688       690       691       673       688       690       692
       674       673       675       676       674       673       675       677
       674       673       675       681       674       673       688       689
       674       673       688       690       675       673       688       689
       675       673       688       690       675       681       684       685
       675       681       684       686       675       681       684       687
       676       675       673       688       676       675       677       678
       676       675       677       679       676       675       677       680
       676       675       681       682       676       675       681       683
       676       675       681       684       677       675       673       688
       677       675       681       682       677       675       681       683
       677       675       681       684       678       677       675       681
       679       677       675       681       680       677       675       681
       681       675       673       688       682       681       684       685
       682       681       684       686       682       681       684       687
       683       681       684       685       683       681       684       686
       683       681       684       687       688       690       692       693
       688       690       692       694       688       690       692       699
       689       688       690       691       689       688       690       692
       690       692       694       695       690       692       694       696
       690       692       694       697       690       692       699       700
       690       692       699       701       691       690       692       693
       691       690       692       694       691       690       692       699
       692       694       697       698       692       699       701       702
       692       699       701       703       693       692       694       695
       693       692       694       696       693       692       694       697
       693       692       699       700       693       692       699       701
       694       692       699       700       694       692       699       701
       695       694       692       699       695       694       697       698
       696       694       692       699       696       694       697       698
       697       694       692       699       699       701       703       704
       699       701       703       705       699       701       703       723
       700       699       701       702       700       699       701       703
       701       703       705       706       701       703       705       707
       701       703       705       708       701       703       723       724
       701       703       723       725       702       701       703       704
       702       701       703       705       702       701       703       723
       703       705       708       709       703       705       708       714
       703       723       725       726       703       723       725       727
       704       703       705       706       704       703       705       707
       704       703       705       708       704       703       723       724
       704       703       723       725       705       703       723       724
       705       703       723       725       705       708       709       710
       705       708       709       711       705       708       714       713
       705       708       714       715       706       705       703       723
       706       705       708       709       706       705       708       714
       707       705       703       723       707       705       708       709
       707       705       708       714       708       705       703       723
       708       709       711       712       708       709       711       713
       708       714       713       711       708       714       713       719
       708       714       715       716       708       714       715       717
       709       708       714       713       709       708       714       715
       709       711       713       714       709       711       713       719
       710       709       708       714       710       709       711       712
       710       709       711       713       711       709       708       714
       711       713       714       715       711       713       719       720
       711       713       719       721       712       711       713       714
       712       711       713       719       713       714       715       716
       713       714       715       717       713       719       721       717
       713       719       721       722       714       713       719       720
       714       713       719       721       714       715       717       718
       714       715       717       721       715       714       713       719
       715       717       721       719       715       717       721       722
       716       715       717       718       716       715       717       721
       717       721       719       720       718       717       721       719
       718       717       721       722       720       719       721       722
       723       725       727       728       723       725       727       729
       723       725       727       742       724       723       725       726
       724       723       725       727       725       727       729       730
       725       727       729       731       725       727       729       735
       725       727       742       743       725       727       742       744
       726       725       727       728       726       725       727       729
       726       725       727       742       727       729       731       732
       727       729       731       733       727       729       731       734
       727       729       735       736       727       729       735       737
       727       729       735       738       727       742       744       745
       727       742       744       746       728       727       729       730
       728       727       729       731       728       727       729       735
       728       727       742       743       728       727       742       744
       729       727       742       743       729       727       742       744
       729       735       738       739       729       735       738       740
       729       735       738       741       730       729       727       742
       730       729       731       732       730       729       731       733
       730       729       731       734       730       729       735       736
       730       729       735       737       730       729       735       738
       731       729       727       742       731       729       735       736
       731       729       735       737       731       729       735       738
       732       731       729       735       733       731       729       735
       734       731       729       735       735       729       727       742
       736       735       738       739       736       735       738       740
       736       735       738       741       737       735       738       739
       737       735       738       740       737       735       738       741
       742       744       746       747       742       744       746       748
       742       744       746       764       743       742       744       745
       743       742       744       746       744       746       748       749
       744       746       748       750       744       746       748       751
       744       746       764       765       744       746       764       766
       745       744       746       747       745       744       746       748
       745       744       746       764       746       748       751       752
       746       748       751       753       746       748       751       754
       746       764       766       767       746       764       766       768
       747       746       748       749       747       746       748       750
       747       746       748       751       747       746       764       765
       747       746       764       766       748       746       764       765
       748       746       764       766       748       751       754       755
       748       751       754       756       748       751       754       757
       749       748       746       764       749       748       751       752
       749       748       751       753       749       748       751       754
       750       748       746       764       750       748       751       752
       750       748       751       753       750       748       751       754
       751       748       746       764       751       754       757       758
       751       754       757       759       751       754       757       760
       752       751       754       755       752       751       754       756
       752       751       754       757       753       751       754       755
       753       751       754       756       753       751       754       757
       754       757       760       761       754       757       760       762
       754       757       760       763       755       754       757       758
       755       754       757       759       755       754       757       760
       756       754       757       758       756       754       757       759
       756       754       757       760       758       757       760       761
       758       757       760       762       758       757       760       763
       759       757       760       761       759       757       760       762
       759       757       760       763       764       766       768       769
       764       766       768       770       764       766       768       788
       765       764       766       767       765       764       766       768
       766       768       770       771       766       768       770       772
       766       768       770       773       766       768       788       789
       766       768       788       790       767       766       768       769
       767       766       768       770       767       766       768       788
       768       770       773       774       768       770       773       775
       768       770       773       776       768       788       790       791
       768       788       790       792       769       768       770       771
       769       768       770       772       769       768       770       773
       769       768       788       789       769       768       788       790
       770       768       788       789       770       768       788       790
       770       773       776       777       770       773       776       778
       770       773       776       779       771       770       768       788
       771       770       773       774       771       770       773       775
       771       770       773       776       772       770       768       788
       772       770       773       774       772       770       773       775
       772       770       773       776       773       770       768       788
       773       776       779       780       773       776       779       781
       774       773       776       777       774       773       776       778
       774       773       776       779       775       773       776       777
       775       773       776       778       775       773       776       779
       776       779       781       782       776       779       781       785
       777       776       779       780       777       776       779       781
       778       776       779       780       778       776       779       781
       779       781       782       783       779       781       782       784
       779       781       785       786       779       781       785       787
       780       779       781       782       780       779       781       785
       782       781       785       786       782       781       785       787
       783       782       781       785       784       782       781       785
       788       790       792       793       788       790       792       794
       788       790       792       810       789       788       790       791
       789       788       790       792       790       792       794       795
       790       792       794       796       790       792       794       797
       790       792       810       811       790       792       810       812
       791       790       792       793       791       790       792       794
       791       790       792       810       792       794       797       798
       792       794       797       799       792       794       797       800
       792       810       812       813       792       810       812       814
       793       792       794       795       793       792       794       796
       793       792       794       797       793       792       810       811
       793       792       810       812       794       792       810       811
       794       792       810       812       794       797       800       801
       794       797       800       802       794       797       800       803
       795       794       792       810       795       794       797       798
       795       794       797       799       795       794       797       800
       796       794       792       810       796       794       797       798
       796       794       797       799       796       794       797       800
       797       794       792       810       797       800       803       804
       797       800       803       805       797       800       803       806
       798       797       800       801       798       797       800       802
       798       797       800       803       799       797       800       801
       799       797       800       802       799       797       800       803
       800       803       806       807       800       803       806       808
       800       803       806       809       801       800       803       804
       801       800       803       805       801       800       803       806
       802       800       803       804       802       800       803       805
       802       800       803       806       804       803       806       807
       804       803       806       808       804       803       806       809
       805       803       806       807       805       803       806       808
       805       803       806       809       810       812       814       815
       810       812       814       816       810       812       814       834
       811       810       812       813       811       810       812       814
       812       814       816       817       812       814       816       818
       812       814       816       819       812       814       834       835
       812       814       834       836       813       812       814       815
       813       812       814       816       813       812       814       834
       814       816       819       820       814       816       819       821
       814       816       819       822       814       834       836       837
       814       834       836       838       815       814       816       817
       815       814       816       818       815       814       816       819
       815       814       834       835       815       814       834       836
       816       814       834       835       816       814       834       836
       816       819       822       823       816       819       822       824
       816       819       822       825       817       816       814       834
       817       816       819       820       817       816       819       821
       817       816       819       822       818       816       814       834
       818       816       819       820       818       816       819       821
       818       816       819       822       819       816       814       834
       819       822       825       826       819       822       825       827
       820       819       822       823       820       819       822       824
       820       819       822       825       821       819       822       823
       821       819       822       824       821       819       822       825
       822       825       827       828       822       825       827       831
       823       822       825       826       823       822       825       827
       824       822       825       826       824       822       825       827
       825       827       828       829       825       827       828       830
       825       827       831       832       825       827       831       833
       826       825       827       828       826       825       827       831
       828       827       831       832       828       827       831       833
       829       828       827       831       830       828       827       831
       834       836       838       839       834       836       838       840
       834       836       838       851       835       834       836       837
       835       834       836       838       836       838       840       841
       836       838       840       842       836       838       840       843
       836       838       851       852       836       838       851       853
       837       836       838       839       837       836       838       840
       837       836       838       851       838       840       843       844
       838       840       843       845       838       840       843       846
       838       851       853       854       838       851       853       855
       839       838       840       841       839       838       840       842
       839       838       840       843       839       838       851       852
       839       838       851       853       840       838       851       852
       840       838       851       853       840       843       846       847
       840       843       846       848       841       840       838       851
       841       840       843       844       841       840       843       845
       841       840       843       846       842       840       838       851
       842       840       843       844       842       840       843       845
       842       840       843       846       843       840       838       851
       843       846       848       849       843       846       848       850
       844       843       846       847       844       843       846       848
       845       843       846       847       845       843       846       848
       847       846       848       849       847       846       848       850
       851       853       855       856       851       853       855       857
       851       853       855       868       852       851       853       854
       852       851       853       855       853       855       857       858
       853       855       857       859       853       855       857       860
       853       855       868       869       853       855       868       870
       854       853       855       856       854       853       855       857
       854       853       855       868       855       857       860       861
       855       857       860       862       855       857       860       863
       855       868       870       871       855       868       870       872
       856       855       857       858       856       855       857       859
       856       855       857       860       856       855       868       869
       856       855       868       870       857       855       868       869
       857       855       868       870       857       860       863       864
       857       860       863       865       858       857       855       868
       858       857       860       861       858       857       860       862
       858       857       860       863       859       857       855       868
       859       857       860       861       859       857       860       862
       859       857       860       863       860       857       855       868
       860       863       865       866       860       863       865       867
       861       860       863       864       861       860       863       865
       862       860       863       864       862       860       863       865
       864       863       865       866       864       863       865       867
       869       868       870       871       869       868       870       872
       873       874       889       890       873       874       889       891
       873       874       889       895       874       873       877       878
       874       873       877       879       874       873       877       880
       874       873       881       882       874       873       881       883
       874       873       881       884       874       873       885       886
       874       873       885       887       874       873       885       888
       874       889       895       892       875       874       873       877
       875       874       873       881       875       874       873       885
       875       874       889       890       875       874       889       891
       875       874       889       895       876       874       873       877
       876       874       873       881       876       874       873       885
       876       874       889       890       876       874       889       891
       876       874       889       895       877       873       874       889
       877       873       881       882       877       873       881       883
       877       873       881       884       877       873       885       886
       877       873       885       887       877       873       885       888
       878       877       873       881       878       877       873       885
       879       877       873       881       879       877       873       885
       880       877       873       881       880       877       873       885
       881       873       874       889       881       873       885       886
       881       873       885       887       881       873       885       888
       882       881       873       885       883       881       873       885
       884       881       873       885       885       873       874       889
       889       895       892       893       889       895       892       894
       889       895       892       896       890       889       895       892
       891       889       895       892       892       896       897       898
       892       896       897       899       892       896       897       900
       893       892       896       897       894       892       896       897
       895       892       896       897       896       897       900       901
       896       897       900       902       896       897       900       908
       897       900       902       903       897       900       908       909
       897       900       908       910       897       900       908       911
       898       897       900       901       898       897       900       902
       898       897       900       908       899       897       900       901
       899       897       900       902       899       897       900       908
       900       902       903       904       900       902       903       905
       900       908       911       912       901       900       902       903
       901       900       908       909       901       900       908       910
       901       900       908       911       902       900       908       909
       902       900       908       910       902       900       908       911
       902       903       905       906       902       903       905       907
       902       903       905       917       903       902       900       908
       903       905       917       918       903       905       917       919
       903       905       917       920       904       903       905       906
       904       903       905       907       904       903       905       917
       905       917       920       921       905       917       920       922
       905       917       920       923       906       905       917       918
       906       905       917       919       906       905       917       920
       907       905       917       918       907       905       917       919
       907       905       917       920       908       911       912       913
       908       911       912       914       909       908       911       912
       910       908       911       912       911       912       914       915
       911       912       914       916       911       912       914       964
       912       914       964       965       912       914       964       966
       912       914       964       967       913       912       914       915
       913       912       914       916       913       912       914       964
       914       964       967       968       914       964       967       969
       914       964       967       970       915       914       964       965
       915       914       964       966       915       914       964       967
       916       914       964       965       916       914       964       966
       916       914       964       967       917       920       923       924
       917       920       923       925       917       920       923       926
       918       917       920       921       918       917       920       922
       918       917       920       923       919       917       920       921
       919       917       920       922       919       917       920       923
       920       923       926       927       920       923       926       928
       920       923       926       929       921       920       923       924
       921       920       923       925       921       920       923       926
       922       920       923       924       922       920       923       925
       922       920       923       926       923       926       929       930
       923       926       929       931       923       926       929       932
       924       923       926       927       924       923       926       928
       924       923       926       929       925       923       926       927
       925       923       926       928       925       923       926       929
       926       929       932       933       926       929       932       934
       926       929       932       935       927       926       929       930
       927       926       929       931       927       926       929       932
       928       926       929       930       928       926       929       931
       928       926       929       932       929       932       935       936
       929       932       935       937       930       929       932       933
       930       929       932       934       930       929       932       935
       931       929       932       933       931       929       932       934
       931       929       932       935       932       935       937       938
       932       935       937       939       933       932       935       936
       933       932       935       937       934       932       935       936
       934       932       935       937       935       937       939       940
       935       937       939       941       935       937       939       942
       936       935       937       938       936       935       937       939
       937       939       942       943       937       939       942       944
       937       939       942       945       938       937       939       940
       938       937       939       941       938       937       939       942
       939       942       945       946       939       942       945       947
       939       942       945       948       940       939       942       943
       940       939       942       944       940       939       942       945
       941       939       942       943       941       939       942       944
       941       939       942       945       942       945       948       949
       942       945       948       950       942       945       948       951
       943       942       945       946       943       942       945       947
       943       942       945       948       944       942       945       946
       944       942       945       947       944       942       945       948
       945       948       951       952       945       948       951       953
       945       948       951       954       946       945       948       949
       946       945       948       950       946       945       948       951
       947       945       948       949       947       945       948       950
       947       945       948       951       948       951       954       955
       948       951       954       956       948       951       954       957
       949       948       951       952       949       948       951       953
       949       948       951       954       950       948       951       952
       950       948       951       953       950       948       951       954
       951       954       957       958       951       954       957       959
       951       954       957       960       952       951       954       955
       952       951       954       956       952       951       954       957
       953       951       954       955       953       951       954       956
       953       951       954       957       954       957       960       961
       954       957       960       962       954       957       960       963
       955       954       957       958       955       954       957       959
       955       954       957       960       956       954       957       958
       956       954       957       959       956       954       957       960
       958       957       960       961       958       957       960       962
       958       957       960       963       959       957       960       961
       959       957       960       962       959       957       960       963
       964       967       970       971       964       967       970       972
       964       967       970       973       965       964       967       968
       965       964       967       969       965       964       967       970
       966       964       967       968       966       964       967       969
       966       964       967       970       967       970       973       974
       967       970       973       975       967       970       973       976
       968       967       970       971       968       967       970       972
       968       967       970       973       969       967       970       971
       969       967       970       972       969       967       970       973
       970       973       976       977       970       973       976       978
       970       973       976       979       971       970       973       974
       971       970       973       975       971       970       973       976
       972       970       973       974       972       970       973       975
       972       970       973       976       973       976       979       980
       973       976       979       981       973       976       979       982
       974       973       976       977       974       973       976       978
       974       973       976       979       975       973       976       977
       975       973       976       978       975       973       976       979
       976       979       982       983       976       979       982       984
       976       979       982       985       977       976       979       980
       977       976       979       981       977       976       979       982
       978       976       979       980       978       976       979       981
       978       976       979       982       979       982       985       986
       979       982       985       987       979       982       985       988
       980       979       982       983       980       979       982       984
       980       979       982       985       981       979       982       983
       981       979       982       984       981       979       982       985
       982       985       988       989       982       985       988       990
       982       985       988       991       983       982       985       986
       983       982       985       987       983       982       985       988
       984       982       985       986       984       982       985       987
       984       982       985       988       985       988       991       992
       985       988       991       993       985       988       991       994
       986       985       988       989       986       985       988       990
       986       985       988       991       987       985       988       989
       987       985       988       990       987       985       988       991
       988       991       994       995       988       991       994       996
       988       991       994       997       989       988       991       992
       989       988       991       993       989       988       991       994
       990       988       991       992       990       988       991       993
       990       988       991       994       991       994       997       998
       991       994       997       999       991       994       997      1000
       992       991       994       995       992       991       994       996
       992       991       994       997       993       991       994       995
       993       991       994       996       993       991       994       997
       994       997      1000      1001       994       997      1000      1002
       994       997      1000      1003       995       994       997       998
       995       994       997       999       995       994       997      1000
       996       994       997       998       996       994       997       999
       996       994       997      1000       997      1000      1003      1004
       997      1000      1003      1005       997      1000      1003      1006
       998       997      1000      1001       998       997      1000      1002
       998       997      1000      1003       999       997      1000      1001
       999       997      1000      1002       999       997      1000      1003
      1001      1000      1003      1004      1001      1000      1003      1005
      1001      1000      1003      1006      1002      1000      1003      1004
      1002      1000      1003      1005      1002      1000      1003      1006
      1007      1008      1023      1024      1007      1008      1023      1025
      1007      1008      1023      1029      1008      1007      1011      1012
      1008      1007      1011      1013      1008      1007      1011      1014
      1008      1007      1015      1016      1008      1007      1015      1017
      1008      1007      1015      1018      1008      1007      1019      1020
      1008      1007      1019      1021      1008      1007      1019      1022
      1008      1023      1029      1026      1009      1008      1007      1011
      1009      1008      1007      1015      1009      1008      1007      1019
      1009      1008      1023      1024      1009      1008      1023      1025
      1009      1008      1023      1029      1010      1008      1007      1011
      1010      1008      1007      1015      1010      1008      1007      1019
      1010      1008      1023      1024      1010      1008      1023      1025
      1010      1008      1023      1029      1011      1007      1008      1023
      1011      1007      1015      1016      1011      1007      1015      1017
      1011      1007      1015      1018      1011      1007      1019      1020
      1011      1007      1019      1021      1011      1007      1019      1022
      1012      1011      1007      1015      1012      1011      1007      1019
      1013      1011      1007      1015      1013      1011      1007      1019
      1014      1011      1007      1015      1014      1011      1007      1019
      1015      1007      1008      1023      1015      1007      1019      1020
      1015      1007      1019      1021      1015      1007      1019      1022
      1016      1015      1007      1019      1017      1015      1007      1019
      1018      1015      1007      1019      1019      1007      1008      1023
      1023      1029      1026      1027      1023      1029      1026      1028
      1023      1029      1026      1030      1024      1023      1029      1026
      1025      1023      1029      1026      1026      1030      1031      1032
      1026      1030      1031      1033      1026      1030      1031      1034
      1027      1026      1030      1031      1028      1026      1030      1031
      1029      1026      1030      1031      1030      1031      1034      1035
      1030      1031      1034      1036      1030      1031      1034      1042
      1031      1034      1036      1037      1031      1034      1042      1043
      1031      1034      1042      1044      1031      1034      1042      1045
      1032      1031      1034      1035      1032      1031      1034      1036
      1032      1031      1034      1042      1033      1031      1034      1035
      1033      1031      1034      1036      1033      1031      1034      1042
      1034      1036      1037      1038      1034      1036      1037      1039
      1034      1042      1045      1046      1035      1034      1036      1037
      1035      1034      1042      1043      1035      1034      1042      1044
      1035      1034      1042      1045      1036      1034      1042      1043
      1036      1034      1042      1044      1036      1034      1042      1045
      1036      1037      1039      1040      1036      1037      1039      1041
      1036      1037      1039      1051      1037      1036      1034      1042
      1037      1039      1051      1052      1037      1039      1051      1053
      1037      1039      1051      1054      1038      1037      1039      1040
      1038      1037      1039      1041      1038      1037      1039      1051
      1039      1051      1054      1055      1039      1051      1054      1056
      1039      1051      1054      1057      1040      1039      1051      1052
      1040      1039      1051      1053      1040      1039      1051      1054
      1041      1039      1051      1052      1041      1039      1051      1053
      1041      1039      1051      1054      1042      1045      1046      1047
      1042      1045      1046      1048      1043      1042      1045      1046
      1044      1042      1045      1046      1045      1046      1048      1049
      1045      1046      1048      1050      1045      1046      1048      1098
      1046      1048      1098      1099      1046      1048      1098      1100
      1046      1048      1098      1101      1047      1046      1048      1049
      1047      1046      1048      1050      1047      1046      1048      1098
      1048      1098      1101      1102      1048      1098      1101      1103
      1048      1098      1101      1104      1049      1048      1098      1099
      1049      1048      1098      1100      1049      1048      1098      1101
      1050      1048      1098      1099      1050      1048      1098      1100
      1050      1048      1098      1101      1051      1054      1057      1058
      1051      1054      1057      1059      1051      1054      1057      1060
      1052      1051      1054      1055      1052      1051      1054      1056
      1052      1051      1054      1057      1053      1051      1054      1055
      1053      1051      1054      1056      1053      1051      1054      1057
      1054      1057      1060      1061      1054      1057      1060      1062
      1054      1057      1060      1063      1055      1054      1057      1058
      1055      1054      1057      1059      1055      1054      1057      1060
      1056      1054      1057      1058      1056      1054      1057      1059
      1056      1054      1057      1060      1057      1060      1063      1064
      1057      1060      1063      1065      1057      1060      1063      1066
      1058      1057      1060      1061      1058      1057      1060      1062
      1058      1057      1060      1063      1059      1057      1060      1061
      1059      1057      1060      1062      1059      1057      1060      1063
      1060      1063      1066      1067      1060      1063      1066      1068
      1060      1063      1066      1069      1061      1060      1063      1064
      1061      1060      1063      1065      1061      1060      1063      1066
      1062      1060      1063      1064      1062      1060      1063      1065
      1062      1060      1063      1066      1063      1066      1069      1070
      1063      1066      1069      1071      1064      1063      1066      1067
      1064      1063      1066      1068      1064      1063      1066      1069
      1065      1063      1066      1067      1065      1063      1066      1068
      1065      1063      1066      1069      1066      1069      1071      1072
      1066      1069      1071      1073      1067      1066      1069      1070
      1067      1066      1069      1071      1068      1066      1069      1070
      1068      1066      1069      1071      1069      1071      1073      1074
      1069      1071      1073      1075      1069      1071      1073      1076
      1070      1069      1071      1072      1070      1069      1071      1073
      1071      1073      1076      1077      1071      1073      1076      1078
      1071      1073      1076      1079      1072      1071      1073      1074
      1072      1071      1073      1075      1072      1071      1073      1076
      1073      1076      1079      1080      1073      1076      1079      1081
      1073      1076      1079      1082      1074      1073      1076      1077
      1074      1073      1076      1078      1074      1073      1076      1079
      1075      1073      1076      1077      1075      1073      1076      1078
      1075      1073      1076      1079      1076      1079      1082      1083
      1076      1079      1082      1084      1076      1079      1082      1085
      1077      1076      1079      1080      1077      1076      1079      1081
      1077      1076      1079      1082      1078      1076      1079      1080
      1078      1076      1079      1081      1078      1076      1079      1082
      1079      1082      1085      1086      1079      1082      1085      1087
      1079      1082      1085      1088      1080      1079      1082      1083
      1080      1079      1082      1084      1080      1079      1082      1085
      1081      1079      1082      1083      1081      1079      1082      1084
      1081      1079      1082      1085      1082      1085      1088      1089
      1082      1085      1088      1090      1082      1085      1088      1091
      1083      1082      1085      1086      1083      1082      1085      1087
      1083      1082      1085      1088      1084      1082      1085      1086
      1084      1082      1085      1087      1084      1082      1085      1088
      1085      1088      1091      1092      1085      1088      1091      1093
      1085      1088      1091      1094      1086      1085      1088      1089
      1086      1085      1088      1090      1086      1085      1088      1091
      1087      1085      1088      1089      1087      1085      1088      1090
      1087      1085      1088      1091      1088      1091      1094      1095
      1088      1091      1094      1096      1088      1091      1094      1097
      1089      1088      1091      1092      1089      1088      1091      1093
      1089      1088      1091      1094      1090      1088      1091      1092
      1090      1088      1091      1093      1090      1088      1091      1094
      1092      1091      1094      1095      1092      1091      1094      1096
      1092      1091      1094      1097      1093      1091      1094      1095
      1093      1091      1094      1096      1093      1091      1094      1097
      1098      1101      1104      1105      1098      1101      1104      1106
      1098      1101      1104      1107      1099      1098      1101      1102
      1099      1098      1101      1103      1099      1098      1101      1104
      1100      1098      1101      1102      1100      1098      1101      1103
      1100      1098      1101      1104      1101      1104      1107      1108
      1101      1104      1107      1109      1101      1104      1107      1110
      1102      1101      1104      1105      1102      1101      1104      1106
      1102      1101      1104      1107      1103      1101      1104      1105
      1103      1101      1104      1106      1103      1101      1104      1107
      1104      1107      1110      1111      1104      1107      1110      1112
      1104      1107      1110      1113      1105      1104      1107      1108
      1105      1104      1107      1109      1105      1104      1107      1110
      1106      1104      1107      1108      1106      1104      1107      1109
      1106      1104      1107      1110      1107      1110      1113      1114
      1107      1110      1113      1115      1107      1110      1113      1116
      1108      1107      1110      1111      1108      1107      1110      1112
      1108      1107      1110      1113      1109      1107      1110      1111
      1109      1107      1110      1112      1109      1107      1110      1113
      1110      1113      1116      1117      1110      1113      1116      1118
      1110      1113      1116      1119      1111      1110      1113      1114
      1111      1110      1113      1115      1111      1110      1113      1116
      1112      1110      1113      1114      1112      1110      1113      1115
      1112      1110      1113      1116      1113      1116      1119      1120
      1113      1116      1119      1121      1113      1116      1119      1122
      1114      1113      1116      1117      1114      1113      1116      1118
      1114      1113      1116      1119      1115      1113      1116      1117
      1115      1113      1116      1118      1115      1113      1116      1119
      1116      1119      1122      1123      1116      1119      1122      1124
      1116      1119      1122      1125      1117      1116      1119      1120
      1117      1116      1119      1121      1117      1116      1119      1122
      1118      1116      1119      1120      1118      1116      1119      1121
      1118      1116      1119      1122      1119      1122      1125      1126
      1119      1122      1125      1127      1119      1122      1125      1128
      1120      1119      1122      1123      1120      1119      1122      1124
      1120      1119      1122      1125      1121      1119      1122      1123
      1121      1119      1122      1124      1121      1119      1122      1125
      1122      1125      1128      1129      1122      1125      1128      1130
      1122      1125      1128      1131      1123      1122      1125      1126
      1123      1122      1125      1127      1123      1122      1125      1128
      1124      1122      1125      1126      1124      1122      1125      1127
      1124      1122      1125      1128      1125      1128      1131      1132
      1125      1128      1131      1133      1125      1128      1131      1134
      1126      1125      1128      1129      1126      1125      1128      1130
      1126      1125      1128      1131      1127      1125      1128      1129
      1127      1125      1128      1130      1127      1125      1128      1131
      1128      1131      1134      1135      1128      1131      1134      1136
      1128      1131      1134      1137      1129      1128      1131      1132
      1129      1128      1131      1133      1129      1128      1131      1134
      1130      1128      1131      1132      1130      1128      1131      1133
      1130      1128      1131      1134      1131      1134      1137      1138
      1131      1134      1137      1139      1131      1134      1137      1140
      1132      1131      1134      1135      1132      1131      1134      1136
      1132      1131      1134      1137      1133      1131      1134      1135
      1133      1131      1134      1136      1133      1131      1134      1137
      1135      1134      1137      1138      1135      1134      1137      1139
      1135      1134      1137      1140      1136      1134      1137      1138
      1136      1134      1137      1139      1136      1134      1137      1140
      1141      1142      1157      1158      1141      1142      1157      1159
      1141      1142      1157      1163      1142      1141      1145      1146
      1142      1141      1145      1147      1142      1141      1145      1148
      1142      1141      1149      1150      1142      1141      1149      1151
      1142      1141      1149      1152      1142      1141      1153      1154
      1142      1141      1153      1155      1142      1141      1153      1156
      1142      1157      1163      1160      1143      1142      1141      1145
      1143      1142      1141      1149      1143      1142      1141      1153
      1143      1142      1157      1158      1143      1142      1157      1159
      1143      1142      1157      1163      1144      1142      1141      1145
      1144      1142      1141      1149      1144      1142      1141      1153
      1144      1142      1157      1158      1144      1142      1157      1159
      1144      1142      1157      1163      1145      1141      1142      1157
      1145      1141      1149      1150      1145      1141      1149      1151
      1145      1141      1149      1152      1145      1141      1153      1154
      1145      1141      1153      1155      1145      1141      1153      1156
      1146      1145      1141      1149      1146      1145      1141      1153
      1147      1145      1141      1149      1147      1145      1141      1153
      1148      1145      1141      1149      1148      1145      1141      1153
      1149      1141      1142      1157      1149      1141      1153      1154
      1149      1141      1153      1155      1149      1141      1153      1156
      1150      1149      1141      1153      1151      1149      1141      1153
      1152      1149      1141      1153      1153      1141      1142      1157
      1157      1163      1160      1161      1157      1163      1160      1162
      1157      1163      1160      1164      1158      1157      1163      1160
      1159      1157      1163      1160      1160      1164      1165      1166
      1160      1164      1165      1167      1160      1164      1165      1168
      1161      1160      1164      1165      1162      1160      1164      1165
      1163      1160      1164      1165      1164      1165      1168      1169
      1164      1165      1168      1170      1164      1165      1168      1176
      1165      1168      1170      1171      1165      1168      1176      1177
      1165      1168      1176      1178      1165      1168      1176      1179
      1166      1165      1168      1169      1166      1165      1168      1170
      1166      1165      1168      1176      1167      1165      1168      1169
      1167      1165      1168      1170      1167      1165      1168      1176
      1168      1170      1171      1172      1168      1170      1171      1173
      1168      1176      1179      1180      1169      1168      1170      1171
      1169      1168      1176      1177      1169      1168      1176      1178
      1169      1168      1176      1179      1170      1168      1176      1177
      1170      1168      1176      1178      1170      1168      1176      1179
      1170      1171      1173      1174      1170      1171      1173      1175
      1170      1171      1173      1185      1171      1170      1168      1176
      1171      1173      1185      1186      1171      1173      1185      1187
      1171      1173      1185      1188      1172      1171      1173      1174
      1172      1171      1173      1175      1172      1171      1173      1185
      1173      1185      1188      1189      1173      1185      1188      1190
      1173      1185      1188      1191      1174      1173      1185      1186
      1174      1173      1185      1187      1174      1173      1185      1188
      1175      1173      1185      1186      1175      1173      1185      1187
      1175      1173      1185      1188      1176      1179      1180      1181
      1176      1179      1180      1182      1177      1176      1179      1180
      1178      1176      1179      1180      1179      1180      1182      1183
      1179      1180      1182      1184      1179      1180      1182      1232
      1180      1182      1232      1233      1180      1182      1232      1234
      1180      1182      1232      1235      1181      1180      1182      1183
      1181      1180      1182      1184      1181      1180      1182      1232
      1182      1232      1235      1236      1182      1232      1235      1237
      1182      1232      1235      1238      1183      1182      1232      1233
      1183      1182      1232      1234      1183      1182      1232      1235
      1184      1182      1232      1233      1184      1182      1232      1234
      1184      1182      1232      1235      1185      1188      1191      1192
      1185      1188      1191      1193      1185      1188      1191      1194
      1186      1185      1188      1189      1186      1185      1188      1190
      1186      1185      1188      1191      1187      1185      1188      1189
      1187      1185      1188      1190      1187      1185      1188      1191
      1188      1191      1194      1195      1188      1191      1194      1196
      1188      1191      1194      1197      1189      1188      1191      1192
      1189      1188      1191      1193      1189      1188      1191      1194
      1190      1188      1191      1192      1190      1188      1191      1193
      1190      1188      1191      1194      1191      1194      1197      1198
      1191      1194      1197      1199      1191      1194      1197      1200
      1192      1191      1194      1195      1192      1191      1194      1196
      1192      1191      1194      1197      1193      1191      1194      1195
      1193      1191      1194      1196      1193      1191      1194      1197
      1194      1197      1200      1201      1194      1197      1200      1202
      1194      1197      1200      1203      1195      1194      1197      1198
      1195      1194      1197      1199      1195      1194      1197      1200
      1196      1194      1197      1198      1196      1194      1197      1199
      1196      1194      1197      1200      1197      1200      1203      1204
      1197      1200      1203      1205      1198      1197      1200      1201
      1198      1197      1200      1202      1198      1197      1200      1203
      1199      1197      1200      1201      1199      1197      1200      1202
      1199      1197      1200      1203      1200      1203      1205      1206
      1200      1203      1205      1207      1201      1200      1203      1204
      1201      1200      1203      1205      1202      1200      1203      1204
      1202      1200      1203      1205      1203      1205      1207      1208
      1203      1205      1207      1209      1203      1205      1207      1210
      1204      1203      1205      1206      1204      1203      1205      1207
      1205      1207      1210      1211      1205      1207      1210      1212
      1205      1207      1210      1213      1206      1205      1207      1208
      1206      1205      1207      1209      1206      1205      1207      1210
      1207      1210      1213      1214      1207      1210      1213      1215
      1207      1210      1213      1216      1208      1207      1210      1211
      1208      1207      1210      1212      1208      1207      1210      1213
      1209      1207      1210      1211      1209      1207      1210      1212
      1209      1207      1210      1213      1210      1213      1216      1217
      1210      1213      1216      1218      1210      1213      1216      1219
      1211      1210      1213      1214      1211      1210      1213      1215
      1211      1210      1213      1216      1212      1210      1213      1214
      1212      1210      1213      1215      1212      1210      1213      1216
      1213      1216      1219      1220      1213      1216      1219      1221
      1213      1216      1219      1222      1214      1213      1216      1217
      1214      1213      1216      1218      1214      1213      1216      1219
      1215      1213      1216      1217      1215      1213      1216      1218
      1215      1213      1216      1219      1216      1219      1222      1223
      1216      1219      1222      1224      1216      1219      1222      1225
      1217      1216      1219      1220      1217      1216      1219      1221
      1217      1216      1219      1222      1218      1216      1219      1220
      1218      1216      1219      1221      1218      1216      1219      1222
      1219      1222      1225      1226      1219      1222      1225      1227
      1219      1222      1225      1228      1220      1219      1222      1223
      1220      1219      1222      1224      1220      1219      1222      1225
      1221      1219      1222      1223      1221      1219      1222      1224
      1221      1219      1222      1225      1222      1225      1228      1229
      1222      1225      1228      1230      1222      1225      1228      1231
      1223      1222      1225      1226      1223      1222      1225      1227
      1223      1222      1225      1228      1224      1222      1225      1226
      1224      1222      1225      1227      1224      1222      1225      1228
      1226      1225      1228      1229      1226      1225      1228      1230
      1226      1225      1228      1231      1227      1225      1228      1229
      1227      1225      1228      1230      1227      1225      1228      1231
      1232      1235      1238      1239      1232      1235      1238      1240
      1232      1235      1238      1241      1233      1232      1235      1236
      1233      1232      1235      1237      1233      1232      1235      1238
      1234      1232      1235      1236      1234      1232      1235      1237
      1234      1232      1235      1238      1235      1238      1241      1242
      1235      1238      1241      1243      1235      1238      1241      1244
      1236      1235      1238      1239      1236      1235      1238      1240
      1236      1235      1238      1241      1237      1235      1238      1239
      1237      1235      1238      1240      1237      1235      1238      1241
      1238      1241      1244      1245      1238      1241      1244      1246
      1238      1241      1244      1247      1239      1238      1241      1242
      1239      1238      1241      1243      1239      1238      1241      1244
      1240      1238      1241      1242      1240      1238      1241      1243
      1240      1238      1241      1244      1241      1244      1247      1248
      1241      1244      1247      1249      1241      1244      1247      1250
      1242      1241      1244      1245      1242      1241      1244      1246
      1242      1241      1244      1247      1243      1241      1244      1245
      1243      1241      1244      1246      1243      1241      1244      1247
      1244      1247      1250      1251      1244      1247      1250      1252
      1244      1247      1250      1253      1245      1244      1247      1248
      1245      1244      1247      1249      1245      1244      1247      1250
      1246      1244      1247      1248      1246      1244      1247      1249
      1246      1244      1247      1250      1247      1250      1253      1254
      1247      1250      1253      1255      1247      1250      1253      1256
      1248      1247      1250      1251      1248      1247      1250      1252
      1248      1247      1250      1253      1249      1247      1250      1251
      1249      1247      1250      1252      1249      1247      1250      1253
      1250      1253      1256      1257      1250      1253      1256      1258
      1250      1253      1256      1259      1251      1250      1253      1254
      1251      1250      1253      1255      1251      1250      1253      1256
      1252      1250      1253      1254      1252      1250      1253      1255
      1252      1250      1253      1256      1253      1256      1259      1260
      1253      1256      1259      1261      1253      1256      1259      1262
      1254      1253      1256      1257      1254      1253      1256      1258
      1254      1253      1256      1259      1255      1253      1256      1257
      1255      1253      1256      1258      1255      1253      1256      1259
      1256      1259      1262      1263      1256      1259      1262      1264
      1256      1259      1262      1265      1257      1256      1259      1260
      1257      1256      1259      1261      1257      1256      1259      1262
      1258      1256      1259      1260      1258      1256      1259      1261
      1258      1256      1259      1262      1259      1262      1265      1266
      1259      1262      1265      1267      1259      1262      1265      1268
      1260      1259      1262      1263      1260      1259      1262      1264
      1260      1259      1262      1265      1261      1259      1262      1263
      1261      1259      1262      1264      1261      1259      1262      1265
      1262      1265      1268      1269      1262      1265      1268      1270
      1262      1265      1268      1271      1263      1262      1265      1266
      1263      1262      1265      1267      1263      1262      1265      1268
      1264      1262      1265      1266      1264      1262      1265      1267
      1264      1262      1265      1268      1265      1268      1271      1272
      1265      1268      1271      1273      1265      1268      1271      1274
      1266      1265      1268      1269      1266      1265      1268      1270
      1266      1265      1268      1271      1267      1265      1268      1269
      1267      1265      1268      1270      1267      1265      1268      1271
      1269      1268      1271      1272      1269      1268      1271      1273
      1269      1268      1271      1274      1270      1268      1271      1272
      1270      1268      1271      1273      1270      1268      1271      1274
      1275      1276      1291      1292      1275      1276      1291      1293
      1275      1276      1291      1297      1276      1275      1279      1280
      1276      1275      1279      1281      1276      1275      1279      1282
      1276      1275      1283      1284      1276      1275      1283      1285
      1276      1275      1283      1286      1276      1275      1287      1288
      1276      1275      1287      1289      1276      1275      1287      1290
      1276      1291      1297      1294      1277      1276      1275      1279
      1277      1276      1275      1283      1277      1276      1275      1287
      1277      1276      1291      1292      1277      1276      1291      1293
      1277      1276      1291      1297      1278      1276      1275      1279
      1278      1276      1275      1283      1278      1276      1275      1287
      1278      1276      1291      1292      1278      1276      1291      1293
      1278      1276      1291      1297      1279      1275      1276      1291
      1279      1275      1283      1284      1279      1275      1283      1285
      1279      1275      1283      1286      1279      1275      1287      1288
      1279      1275      1287      1289      1279      1275      1287      1290
      1280      1279      1275      1283      1280      1279      1275      1287
      1281      1279      1275      1283      1281      1279      1275      1287
      1282      1279      1275      1283      1282      1279      1275      1287
      1283      1275      1276      1291      1283      1275      1287      1288
      1283      1275      1287      1289      1283      1275      1287      1290
      1284      1283      1275      1287      1285      1283      1275      1287
      1286      1283      1275      1287      1287      1275      1276      1291
      1291      1297      1294      1295      1291      1297      1294      1296
      1291      1297      1294      1298      1292      1291      1297      1294
      1293      1291      1297      1294      1294      1298      1299      1300
      1294      1298      1299      1301      1294      1298      1299      1302
      1295      1294      1298      1299      1296      1294      1298      1299
      1297      1294      1298      1299      1298      1299      1302      1303
      1298      1299      1302      1304      1298      1299      1302      1310
      1299      1302      1304      1305      1299      1302      1310      1311
      1299      1302      1310      1312      1299      1302      1310      1313
      1300      1299      1302      1303      1300      1299      1302      1304
      1300      1299      1302      1310      1301      1299      1302      1303
      1301      1299      1302      1304      1301      1299      1302      1310
      1302      1304      1305      1306      1302      1304      1305      1307
      1302      1310      1313      1314      1303      1302      1304      1305
      1303      1302      1310      1311      1303      1302      1310      1312
      1303      1302      1310      1313      1304      1302      1310      1311
      1304      1302      1310      1312      1304      1302      1310      1313
      1304      1305      1307      1308      1304      1305      1307      1309
      1304      1305      1307      1319      1305      1304      1302      1310
      1305      1307      1319      1320      1305      1307      1319      1321
      1305      1307      1319      1322      1306      1305      1307      1308
      1306      1305      1307      1309      1306      1305      1307      1319
      1307      1319      1322      1323      1307      1319      1322      1324
      1307      1319      1322      1325      1308      1307      1319      1320
      1308      1307      1319      1321      1308      1307      1319      1322
      1309      1307      1319      1320      1309      1307      1319      1321
      1309      1307      1319      1322      1310      1313      1314      1315
      1310      1313      1314      1316      1311      1310      1313      1314
      1312      1310      1313      1314      1313      1314      1316      1317
      1313      1314      1316      1318      1313      1314      1316      1366
      1314      1316      1366      1367      1314      1316      1366      1368
      1314      1316      1366      1369      1315      1314      1316      1317
      1315      1314      1316      1318      1315      1314      1316      1366
      1316      1366      1369      1370      1316      1366      1369      1371
      1316      1366      1369      1372      1317      1316      1366      1367
      1317      1316      1366      1368      1317      1316      1366      1369
      1318      1316      1366      1367      1318      1316      1366      1368
      1318      1316      1366      1369      1319      1322      1325      1326
      1319      1322      1325      1327      1319      1322      1325      1328
      1320      1319      1322      1323      1320      1319      1322      1324
      1320      1319      1322      1325      1321      1319      1322      1323
      1321      1319      1322      1324      1321      1319      1322      1325
      1322      1325      1328      1329      1322      1325      1328      1330
      1322      1325      1328      1331      1323      1322      1325      1326
      1323      1322      1325      1327      1323      1322      1325      1328
      1324      1322      1325      1326      1324      1322      1325      1327
      1324      1322      1325      1328      1325      1328      1331      1332
      1325      1328      1331      1333      1325      1328      1331      1334
      1326      1325      1328      1329      1326      1325      1328      1330
      1326      1325      1328      1331      1327      1325      1328      1329
      1327      1325      1328      1330      1327      1325      1328      1331
      1328      1331      1334      1335      1328      1331      1334      1336
      1328      1331      1334      1337      1329      1328      1331      1332
      1329      1328      1331      1333      1329      1328      1331      1334
      1330      1328      1331      1332      1330      1328      1331      1333
      1330      1328      1331      1334      1331      1334      1337      1338
      1331      1334      1337      1339      1332      1331      1334      1335
      1332      1331      1334      1336      1332      1331      1334      1337
      1333      1331      1334      1335      1333      1331      1334      1336
      1333      1331      1334      1337      1334      1337      1339      1340
      1334      1337      1339      1341      1335      1334      1337      1338
      1335      1334      1337      1339      1336      1334      1337      1338
      1336      1334      1337      1339      1337      1339      1341      1342
      1337      1339      1341      1343      1337      1339      1341      1344
      1338      1337      1339      1340      1338      1337      1339      1341
      1339      1341      1344      1345      1339      1341      1344      1346
      1339      1341      1344      1347      1340      1339      1341      1342
      1340      1339      1341      1343      1340      1339      1341      1344
      1341      1344      1347      1348      1341      1344      1347      1349
      1341      1344      1347      1350      1342      1341      1344      1345
      1342      1341      1344      1346      1342      1341      1344      1347
      1343      1341      1344      1345      1343      1341      1344      1346
      1343      1341      1344      1347      1344      1347      1350      1351
      1344      1347      1350      1352      1344      1347      1350      1353
      1345      1344      1347      1348      1345      1344      1347      1349
      1345      1344      1347      1350      1346      1344      1347      1348
      1346      1344      1347      1349      1346      1344      1347      1350
      1347      1350      1353      1354      1347      1350      1353      1355
      1347      1350      1353      1356      1348      1347      1350      1351
      1348      1347      1350      1352      1348      1347      1350      1353
      1349      1347      1350      1351      1349      1347      1350      1352
      1349      1347      1350      1353      1350      1353      1356      1357
      1350      1353      1356      1358      1350      1353      1356      1359
      1351      1350      1353      1354      1351      1350      1353      1355
      1351      1350      1353      1356      1352      1350      1353      1354
      1352      1350      1353      1355      1352      1350      1353      1356
      1353      1356      1359      1360      1353      1356      1359      1361
      1353      1356      1359      1362      1354      1353      1356      1357
      1354      1353      1356      1358      1354      1353      1356      1359
      1355      1353      1356      1357      1355      1353      1356      1358
      1355      1353      1356      1359      1356      1359      1362      1363
      1356      1359      1362      1364      1356      1359      1362      1365
      1357      1356      1359      1360      1357      1356      1359      1361
      1357      1356      1359      1362      1358      1356      1359      1360
      1358      1356      1359      1361      1358      1356      1359      1362
      1360      1359      1362      1363      1360      1359      1362      1364
      1360      1359      1362      1365      1361      1359      1362      1363
      1361      1359      1362      1364      1361      1359      1362      1365
      1366      1369      1372      1373      1366      1369      1372      1374
      1366      1369      1372      1375      1367      1366      1369      1370
      1367      1366      1369      1371      1367      1366      1369      1372
      1368      1366      1369      1370      1368      1366      1369      1371
      1368      1366      1369      1372      1369      1372      1375      1376
      1369      1372      1375      1377      1369      1372      1375      1378
      1370      1369      1372      1373      1370      1369      1372      1374
      1370      1369      1372      1375      1371      1369      1372      1373
      1371      1369      1372      1374      1371      1369      1372      1375
      1372      1375      1378      1379      1372      1375      1378      1380
      1372      1375      1378      1381      1373      1372      1375      1376
      1373      1372      1375      1377      1373      1372      1375      1378
      1374      1372      1375      1376      1374      1372      1375      1377
      1374      1372      1375      1378      1375      1378      1381      1382
      1375      1378      1381      1383      1375      1378      1381      1384
      1376      1375      1378      1379      1376      1375      1378      1380
      1376      1375      1378      1381      1377      1375      1378      1379
      1377      1375      1378      1380      1377      1375      1378      1381
      1378      1381      1384      1385      1378      1381      1384      1386
      1378      1381      1384      1387      1379      1378      1381      1382
      1379      1378      1381      1383      1379      1378      1381      1384
      1380      1378      1381      1382      1380      1378      1381      1383
      1380      1378      1381      1384      1381      1384      1387      1388
      1381      1384      1387      1389      1381      1384      1387      1390
      1382      1381      1384      1385      1382      1381      1384      1386
      1382      1381      1384      1387      1383      1381      1384      1385
      1383      1381      1384      1386      1383      1381      1384      1387
      1384      1387      1390      1391      1384      1387      1390      1392
      1384      1387      1390      1393      1385      1384      1387      1388
      1385      1384      1387      1389      1385      1384      1387      1390
      1386      1384      1387      1388      1386      1384      1387      1389
      1386      1384      1387      1390      1387      1390      1393      1394
      1387      1390      1393      1395      1387      1390      1393      1396
      1388      1387      1390      1391      1388      1387      1390      1392
      1388      1387      1390      1393      1389      1387      1390      1391
      1389      1387      1390      1392      1389      1387      1390      1393
      1390      1393      1396      1397      1390      1393      1396      1398
      1390      1393      1396      1399      1391      1390      1393      1394
      1391      1390      1393      1395      1391      1390      1393      1396
      1392      1390      1393      1394      1392      1390      1393      1395
      1392      1390      1393      1396      1393      1396      1399      1400
      1393      1396      1399      1401      1393      1396      1399      1402
      1394      1393      1396      1397      1394      1393      1396      1398
      1394      1393      1396      1399      1395      1393      1396      1397
      1395      1393      1396      1398      1395      1393      1396      1399
      1396      1399      1402      1403      1396      1399      1402      1404
      1396      1399      1402      1405      1397      1396      1399      1400
      1397      1396      1399      1401      1397      1396      1399      1402
      1398      1396      1399      1400      1398      1396      1399      1401
      1398      1396      1399      1402      1399      1402      1405      1406
      1399      1402      1405      1407      1399      1402      1405      1408
      1400      1399      1402      1403      1400      1399      1402      1404
      1400      1399      1402      1405      1401      1399      1402      1403
      1401      1399      1402      1404      1401      1399      1402      1405
      1403      1402      1405      1406      1403      1402      1405      1407
      1403      1402      1405      1408      1404      1402      1405      1406
      1404      1402      1405      1407      1404      1402      1405      1408
      1409      1410      1425      1426      1409      1410      1425      1427
      1409      1410      1425      1431      1410      1409      1413      1414
      1410      1409      1413      1415      1410      1409      1413      1416
      1410      1409      1417      1418      1410      1409      1417      1419
      1410      1409      1417      1420      1410      1409      1421      1422
      1410      1409      1421      1423      1410      1409      1421      1424
      1410      1425      1431      1428      1411      1410      1409      1413
      1411      1410      1409      1417      1411      1410      1409      1421
      1411      1410      1425      1426      1411      1410      1425      1427
      1411      1410      1425      1431      1412      1410      1409      1413
      1412      1410      1409      1417      1412      1410      1409      1421
      1412      1410      1425      1426      1412      1410      1425      1427
      1412      1410      1425      1431      1413      1409      1410      1425
      1413      1409      1417      1418      1413      1409      1417      1419
      1413      1409      1417      1420      1413      1409      1421      1422
      1413      1409      1421      1423      1413      1409      1421      1424
      1414      1413      1409      1417      1414      1413      1409      1421
      1415      1413      1409      1417      1415      1413      1409      1421
      1416      1413      1409      1417      1416      1413      1409      1421
      1417      1409      1410      1425      1417      1409      1421      1422
      1417      1409      1421      1423      1417      1409      1421      1424
      1418      1417      1409      1421      1419      1417      1409      1421
      1420      1417      1409      1421      1421      1409      1410      1425
      1425      1431      1428      1429      1425      1431      1428      1430
      1425      1431      1428      1432      1426      1425      1431      1428
      1427      1425      1431      1428      1428      1432      1433      1434
      1428      1432      1433      1435      1428      1432      1433      1436
      1429      1428      1432      1433      1430      1428      1432      1433
      1431      1428      1432      1433      1432      1433      1436      1437
      1432      1433      1436      1438      1432      1433      1436      1444
      1433      1436      1438      1439      1433      1436      1444      1445
      1433      1436      1444      1446      1433      1436      1444      1447
      1434      1433      1436      1437      1434      1433      1436      1438
      1434      1433      1436      1444      1435      1433      1436      1437
      1435      1433      1436      1438      1435      1433      1436      1444
      1436      1438      1439      1440      1436      1438      1439      1441
      1436      1444      1447      1448      1437      1436      1438      1439
      1437      1436      1444      1445      1437      1436      1444      1446
      1437      1436      1444      1447      1438      1436      1444      1445
      1438      1436      1444      1446      1438      1436      1444      1447
      1438      1439      1441      1442      1438      1439      1441      1443
      1438      1439      1441      1453      1439      1438      1436      1444
      1439      1441      1453      1454      1439      1441      1453      1455
      1439      1441      1453      1456      1440      1439      1441      1442
      1440      1439      1441      1443      1440      1439      1441      1453
      1441      1453      1456      1457      1441      1453      1456      1458
      1441      1453      1456      1459      1442      1441      1453      1454
      1442      1441      1453      1455      1442      1441      1453      1456
      1443      1441      1453      1454      1443      1441      1453      1455
      1443      1441      1453      1456      1444      1447      1448      1449
      1444      1447      1448      1450      1445      1444      1447      1448
      1446      1444      1447      1448      1447      1448      1450      1451
      1447      1448      1450      1452      1447      1448      1450      1500
      1448      1450      1500      1501      1448      1450      1500      1502
      1448      1450      1500      1503      1449      1448      1450      1451
      1449      1448      1450      1452      1449      1448      1450      1500
      1450      1500      1503      1504      1450      1500      1503      1505
      1450      1500      1503      1506      1451      1450      1500      1501
      1451      1450      1500      1502      1451      1450      1500      1503
      1452      1450      1500      1501      1452      1450      1500      1502
      1452      1450      1500      1503      1453      1456      1459      1460
      1453      1456      1459      1461      1453      1456      1459      1462
      1454      1453      1456      1457      1454      1453      1456      1458
      1454      1453      1456      1459      1455      1453      1456      1457
      1455      1453      1456      1458      1455      1453      1456      1459
      1456      1459      1462      1463      1456      1459      1462      1464
      1456      1459      1462      1465      1457      1456      1459      1460
      1457      1456      1459      1461      1457      1456      1459      1462
      1458      1456      1459      1460      1458      1456      1459      1461
      1458      1456      1459      1462      1459      1462      1465      1466
      1459      1462      1465      1467      1459      1462      1465      1468
      1460      1459      1462      1463      1460      1459      1462      1464
      1460      1459      1462      1465      1461      1459      1462      1463
      1461      1459      1462      1464      1461      1459      1462      1465
      1462      1465      1468      1469      1462      1465      1468      1470
      1462      1465      1468      1471      1463      1462      1465      1466
      1463      1462      1465      1467      1463      1462      1465      1468
      1464      1462      1465      1466      1464      1462      1465      1467
      1464      1462      1465      1468      1465      1468      1471      1472
      1465      1468      1471      1473      1466      1465      1468      1469
      1466      1465      1468      1470      1466      1465      1468      1471
      1467      1465      1468      1469      1467      1465      1468      1470
      1467      1465      1468      1471      1468      1471      1473      1474
      1468      1471      1473      1475      1469      1468      1471      1472
      1469      1468      1471      1473      1470      1468      1471      1472
      1470      1468      1471      1473      1471      1473      1475      1476
      1471      1473      1475      1477      1471      1473      1475      1478
      1472      1471      1473      1474      1472      1471      1473      1475
      1473      1475      1478      1479      1473      1475      1478      1480
      1473      1475      1478      1481      1474      1473      1475      1476
      1474      1473      1475      1477      1474      1473      1475      1478
      1475      1478      1481      1482      1475      1478      1481      1483
      1475      1478      1481      1484      1476      1475      1478      1479
      1476      1475      1478      1480      1476      1475      1478      1481
      1477      1475      1478      1479      1477      1475      1478      1480
      1477      1475      1478      1481      1478      1481      1484      1485
      1478      1481      1484      1486      1478      1481      1484      1487
      1479      1478      1481      1482      1479      1478      1481      1483
      1479      1478      1481      1484      1480      1478      1481      1482
      1480      1478      1481      1483      1480      1478      1481      1484
      1481      1484      1487      1488      1481      1484      1487      1489
      1481      1484      1487      1490      1482      1481      1484      1485
      1482      1481      1484      1486      1482      1481      1484      1487
      1483      1481      1484      1485      1483      1481      1484      1486
      1483      1481      1484      1487      1484      1487      1490      1491
      1484      1487      1490      1492      1484      1487      1490      1493
      1485      1484      1487      1488      1485      1484      1487      1489
      1485      1484      1487      1490      1486      1484      1487      1488
      1486      1484      1487      1489      1486      1484      1487      1490
      1487      1490      1493      1494      1487      1490      1493      1495
      1487      1490      1493      1496      1488      1487      1490      1491
      1488      1487      1490      1492      1488      1487      1490      1493
      1489      1487      1490      1491      1489      1487      1490      1492
      1489      1487      1490      1493      1490      1493      1496      1497
      1490      1493      1496      1498      1490      1493      1496      1499
      1491      1490      1493      1494      1491      1490      1493      1495
      1491      1490      1493      1496      1492      1490      1493      1494
      1492      1490      1493      1495      1492      1490      1493      1496
      1494      1493      1496      1497      1494      1493      1496      1498
      1494      1493      1496      1499      1495      1493      1496      1497
      1495      1493      1496      1498      1495      1493      1496      1499
      1500      1503      1506      1507      1500      1503      1506      1508
      1500      1503      1506      1509      1501      1500      1503      1504
      1501      1500      1503      1505      1501      1500      1503      1506
      1502      1500      1503      1504      1502      1500      1503      1505
      1502      1500      1503      1506      1503      1506      1509      1510
      1503      1506      1509      1511      1503      1506      1509      1512
      1504      1503      1506      1507      1504      1503      1506      1508
      1504      1503      1506      1509      1505      1503      1506      1507
      1505      1503      1506      1508      1505      1503      1506      1509
      1506      1509      1512      1513      1506      1509      1512      1514
      1506      1509      1512      1515      1507      1506      1509      1510
      1507      1506      1509      1511      1507      1506      1509      1512
      1508      1506      1509      1510      1508      1506      1509      1511
      1508      1506      1509      1512      1509      1512      1515      1516
      1509      1512      1515      1517      1509      1512      1515      1518
      1510      1509      1512      1513      1510      1509      1512      1514
      1510      1509      1512      1515      1511      1509      1512      1513
      1511      1509      1512      1514      1511      1509      1512      1515
      1512      1515      1518      1519      1512      1515      1518      1520
      1512      1515      1518      1521      1513      1512      1515      1516
      1513      1512      1515      1517      1513      1512      1515      1518
      1514      1512      1515      1516      1514      1512      1515      1517
      1514      1512      1515      1518      1515      1518      1521      1522
      1515      1518      1521      1523      1515      1518      1521      1524
      1516      1515      1518      1519      1516      1515      1518      1520
      1516      1515      1518      1521      1517      1515      1518      1519
      1517      1515      1518      1520      1517      1515      1518      1521
      1518      1521      1524      1525      1518      1521      1524      1526
      1518      1521      1524      1527      1519      1518      1521      1522
      1519      1518      1521      1523      1519      1518      1521      1524
      1520      1518      1521      1522      1520      1518      1521      1523
      1520      1518      1521      1524      1521      1524      1527      1528
      1521      1524      1527      1529      1521      1524      1527      1530
      1522      1521      1524      1525      1522      1521      1524      1526
      1522      1521      1524      1527      1523      1521      1524      1525
      1523      1521      1524      1526      1523      1521      1524      1527
      1524      1527      1530      1531      1524      1527      1530      1532
      1524      1527      1530      1533      1525      1524      1527      1528
      1525      1524      1527      1529      1525      1524      1527      1530
      1526      1524      1527      1528      1526      1524      1527      1529
      1526      1524      1527      1530      1527      1530      1533      1534
      1527      1530      1533      1535      1527      1530      1533      1536
      1528      1527      1530      1531      1528      1527      1530      1532
      1528      1527      1530      1533      1529      1527      1530      1531
      1529      1527      1530      1532      1529      1527      1530      1533
      1530      1533      1536      1537      1530      1533      1536      1538
      1530      1533      1536      1539      1531      1530      1533      1534
      1531      1530      1533      1535      1531      1530      1533      1536
      1532      1530      1533      1534      1532      1530      1533      1535
      1532      1530      1533      1536      1533      1536      1539      1540
      1533      1536      1539      1541      1533      1536      1539      1542
      1534      1533      1536      1537      1534      1533      1536      1538
      1534      1533      1536      1539      1535      1533      1536      1537
      1535      1533      1536      1538      1535      1533      1536      1539
      1537      1536      1539      1540      1537      1536      1539      1541
      1537      1536      1539      1542      1538      1536      1539      1540
      1538      1536      1539      1541      1538      1536      1539      1542
      1543      1544      1559      1560      1543      1544      1559      1561
      1543      1544      1559      1565      1544      1543      1547      1548
      1544      1543      1547      1549      1544      1543      1547      1550
      1544      1543      1551      1552      1544      1543      1551      1553
      1544      1543      1551      1554      1544      1543      1555      1556
      1544      1543      1555      1557      1544      1543      1555      1558
      1544      1559      1565      1562      1545      1544      1543      1547
      1545      1544      1543      1551      1545      1544      1543      1555
      1545      1544      1559      1560      1545      1544      1559      1561
      1545      1544      1559      1565      1546      1544      1543      1547
      1546      1544      1543      1551      1546      1544      1543      1555
      1546      1544      1559      1560      1546      1544      1559      1561
      1546      1544      1559      1565      1547      1543      1544      1559
      1547      1543      1551      1552      1547      1543      1551      1553
      1547      1543      1551      1554      1547      1543      1555      1556
      1547      1543      1555      1557      1547      1543      1555      1558
      1548      1547      1543      1551      1548      1547      1543      1555
      1549      1547      1543      1551      1549      1547      1543      1555
      1550      1547      1543      1551      1550      1547      1543      1555
      1551      1543      1544      1559      1551      1543      1555      1556
      1551      1543      1555      1557      1551      1543      1555      1558
      1552      1551      1543      1555      1553      1551      1543      1555
      1554      1551      1543      1555      1555      1543      1544      1559
      1559      1565      1562      1563      1559      1565      1562      1564
      1559      1565      1562      1566      1560      1559      1565      1562
      1561      1559      1565      1562      1562      1566      1567      1568
      1562      1566      1567      1569      1562      1566      1567      1570
      1563      1562      1566      1567      1564      1562      1566      1567
      1565      1562      1566      1567      1566      1567      1570      1571
      1566      1567      1570      1572      1566      1567      1570      1578
      1567      1570      1572      1573      1567      1570      1578      1579
      1567      1570      1578      1580      1567      1570      1578      1581
      1568      1567      1570      1571      1568      1567      1570      1572
      1568      1567      1570      1578      1569      1567      1570      1571
      1569      1567      1570      1572      1569      1567      1570      1578
      1570      1572      1573      1574      1570      1572      1573      1575
      1570      1578      1581      1582      1571      1570      1572      1573
      1571      1570      1578      1579      1571      1570      1578      1580
      1571      1570      1578      1581      1572      1570      1578      1579
      1572      1570      1578      1580      1572      1570      1578      1581
      1572      1573      1575      1576      1572      1573      1575      1577
      1572      1573      1575      1587      1573      1572      1570      1578
      1573      1575      1587      1588      1573      1575      1587      1589
      1573      1575      1587      1590      1574      1573      1575      1576
      1574      1573      1575      1577      1574      1573      1575      1587
      1575      1587      1590      1591      1575      1587      1590      1592
      1575      1587      1590      1593      1576      1575      1587      1588
      1576      1575      1587      1589      1576      1575      1587      1590
      1577      1575      1587      1588      1577      1575      1587      1589
      1577      1575      1587      1590      1578      1581      1582      1583
      1578      1581      1582      1584      1579      1578      1581      1582
      1580      1578      1581      1582      1581      1582      1584      1585
      1581      1582      1584      1586      1581      1582      1584      1634
      1582      1584      1634      1635      1582      1584      1634      1636
      1582      1584      1634      1637      1583      1582      1584      1585
      1583      1582      1584      1586      1583      1582      1584      1634
      1584      1634      1637      1638      1584      1634      1637      1639
      1584      1634      1637      1640      1585      1584      1634      1635
      1585      1584      1634      1636      1585      1584      1634      1637
      1586      1584      1634      1635      1586      1584      1634      1636
      1586      1584      1634      1637      1587      1590      1593      1594
      1587      1590      1593      1595      1587      1590      1593      1596
      1588      1587      1590      1591      1588      1587      1590      1592
      1588      1587      1590      1593      1589      1587      1590      1591
      1589      1587      1590      1592      1589      1587      1590      1593
      1590      1593      1596      1597      1590      1593      1596      1598
      1590      1593      1596      1599      1591      1590      1593      1594
      1591      1590      1593      1595      1591      1590      1593      1596
      1592      1590      1593      1594      1592      1590      1593      1595
      1592      1590      1593      1596      1593      1596      1599      1600
      1593      1596      1599      1601      1593      1596      1599      1602
      1594      1593      1596      1597      1594      1593      1596      1598
      1594      1593      1596      1599      1595      1593      1596      1597
      1595      1593      1596      1598      1595      1593      1596      1599
      1596      1599      1602      1603      1596      1599      1602      1604
      1596      1599      1602      1605      1597      1596      1599      1600
      1597      1596      1599      1601      1597      1596      1599      1602
      1598      1596      1599      1600      1598      1596      1599      1601
      1598      1596      1599      1602      1599      1602      1605      1606
      1599      1602      1605      1607      1600      1599      1602      1603
      1600      1599      1602      1604      1600      1599      1602      1605
      1601      1599      1602      1603      1601      1599      1602      1604
      1601      1599      1602      1605      1602      1605      1607      1608
      1602      1605      1607      1609      1603      1602      1605      1606
      1603      1602      1605      1607      1604      1602      1605      1606
      1604      1602      1605      1607      1605      1607      1609      1610
      1605      1607      1609      1611      1605      1607      1609      1612
      1606      1605      1607      1608      1606      1605      1607      1609
      1607      1609      1612      1613      1607      1609      1612      1614
      1607      1609      1612      1615      1608      1607      1609      1610
      1608      1607      1609      1611      1608      1607      1609      1612
      1609      1612      1615      1616      1609      1612      1615      1617
      1609      1612      1615      1618      1610      1609      1612      1613
      1610      1609      1612      1614      1610      1609      1612      1615
      1611      1609      1612      1613      1611      1609      1612      1614
      1611      1609      1612      1615      1612      1615      1618      1619
      1612      1615      1618      1620      1612      1615      1618      1621
      1613      1612      1615      1616      1613      1612      1615      1617
      1613      1612      1615      1618      1614      1612      1615      1616
      1614      1612      1615      1617      1614      1612      1615      1618
      1615      1618      1621      1622      1615      1618      1621      1623
      1615      1618      1621      1624      1616      1615      1618      1619
      1616      1615      1618      1620      1616      1615      1618      1621
      1617      1615      1618      1619      1617      1615      1618      1620
      1617      1615      1618      1621      1618      1621      1624      1625
      1618      1621      1624      1626      1618      1621      1624      1627
      1619      1618      1621      1622      1619      1618      1621      1623
      1619      1618      1621      1624      1620      1618      1621      1622
      1620      1618      1621      1623      1620      1618      1621      1624
      1621      1624      1627      1628      1621      1624      1627      1629
      1621      1624      1627      1630      1622      1621      1624      1625
      1622      1621      1624      1626      1622      1621      1624      1627
      1623      1621      1624      1625      1623      1621      1624      1626
      1623      1621      1624      1627      1624      1627      1630      1631
      1624      1627      1630      1632      1624      1627      1630      1633
      1625      1624      1627      1628      1625      1624      1627      1629
      1625      1624      1627      1630      1626      1624      1627      1628
      1626      1624      1627      1629      1626      1624      1627      1630
      1628      1627      1630      1631      1628      1627      1630      1632
      1628      1627      1630      1633      1629      1627      1630      1631
      1629      1627      1630      1632      1629      1627      1630      1633
      1634      1637      1640      1641      1634      1637      1640      1642
      1634      1637      1640      1643      1635      1634      1637      1638
      1635      1634      1637      1639      1635      1634      1637      1640
      1636      1634      1637      1638      1636      1634      1637      1639
      1636      1634      1637      1640      1637      1640      1643      1644
      1637      1640      1643      1645      1637      1640      1643      1646
      1638      1637      1640      1641      1638      1637      1640      1642
      1638      1637      1640      1643      1639      1637      1640      1641
      1639      1637      1640      1642      1639      1637      1640      1643
      1640      1643      1646      1647      1640      1643      1646      1648
      1640      1643      1646      1649      1641      1640      1643      1644
      1641      1640      1643      1645      1641      1640      1643      1646
      1642      1640      1643      1644      1642      1640      1643      1645
      1642      1640      1643      1646      1643      1646      1649      1650
      1643      1646      1649      1651      1643      1646      1649      1652
      1644      1643      1646      1647      1644      1643      1646      1648
      1644      1643      1646      1649      1645      1643      1646      1647
      1645      1643      1646      1648      1645      1643      1646      1649
      1646      1649      1652      1653      1646      1649      1652      1654
      1646      1649      1652      1655      1647      1646      1649      1650
      1647      1646      1649      1651      1647      1646      1649      1652
      1648      1646      1649      1650      1648      1646      1649      1651
      1648      1646      1649      1652      1649      1652      1655      1656
      1649      1652      1655      1657      1649      1652      1655      1658
      1650      1649      1652      1653      1650      1649      1652      1654
      1650      1649      1652      1655      1651      1649      1652      1653
      1651      1649      1652      1654      1651      1649      1652      1655
      1652      1655      1658      1659      1652      1655      1658      1660
      1652      1655      1658      1661      1653      1652      1655      1656
      1653      1652      1655      1657      1653      1652      1655      1658
      1654      1652      1655      1656      1654      1652      1655      1657
      1654      1652      1655      1658      1655      1658      1661      1662
      1655      1658      1661      1663      1655      1658      1661      1664
      1656      1655      1658      1659      1656      1655      1658      1660
      1656      1655      1658      1661      1657      1655      1658      1659
      1657      1655      1658      1660      1657      1655      1658      1661
      1658      1661      1664      1665      1658      1661      1664      1666
      1658      1661      1664      1667      1659      1658      1661      1662
      1659      1658      1661      1663      1659      1658      1661      1664
      1660      1658      1661      1662      1660      1658      1661      1663
      1660      1658      1661      1664      1661      1664      1667      1668
      1661      1664      1667      1669      1661      1664      1667      1670
      1662      1661      1664      1665      1662      1661      1664      1666
      1662      1661      1664      1667      1663      1661      1664      1665
      1663      1661      1664      1666      1663      1661      1664      1667
      1664      1667      1670      1671      1664      1667      1670      1672
      1664      1667      1670      1673      1665      1664      1667      1668
      1665      1664      1667      1669      1665      1664      1667      1670
      1666      1664      1667      1668      1666      1664      1667      1669
      1666      1664      1667      1670      1667      1670      1673      1674
      1667      1670      1673      1675      1667      1670      1673      1676
      1668      1667      1670      1671      1668      1667      1670      1672
      1668      1667      1670      1673      1669      1667      1670      1671
      1669      1667      1670      1672      1669      1667      1670      1673
      1671      1670      1673      1674      1671      1670      1673      1675
      1671      1670      1673      1676      1672      1670      1673      1674
      1672      1670      1673      1675      1672      1670      1673      1676
      1677      1678      1693      1694      1677      1678      1693      1695
      1677      1678      1693      1699      1678      1677      1681      1682
      1678      1677      1681      1683      1678      1677      1681      1684
      1678      1677      1685      1686      1678      1677      1685      1687
      1678      1677      1685      1688      1678      1677      1689      1690
      1678      1677      1689      1691      1678      1677      1689      1692
      1678      1693      1699      1696      1679      1678      1677      1681
      1679      1678      1677      1685      1679      1678      1677      1689
      1679      1678      1693      1694      1679      1678      1693      1695
      1679      1678      1693      1699      1680      1678      1677      1681
      1680      1678      1677      1685      1680      1678      1677      1689
      1680      1678      1693      1694      1680      1678      1693      1695
      1680      1678      1693      1699      1681      1677      1678      1693
      1681      1677      1685      1686      1681      1677      1685      1687
      1681      1677      1685      1688      1681      1677      1689      1690
      1681      1677      1689      1691      1681      1677      1689      1692
      1682      1681      1677      1685      1682      1681      1677      1689
      1683      1681      1677      1685      1683      1681      1677      1689
      1684      1681      1677      1685      1684      1681      1677      1689
      1685      1677      1678      1693      1685      1677      1689      1690
      1685      1677      1689      1691      1685      1677      1689      1692
      1686      1685      1677      1689      1687      1685      1677      1689
      1688      1685      1677      1689      1689      1677      1678      1693
      1693      1699      1696      1697      1693      1699      1696      1698
      1693      1699      1696      1700      1694      1693      1699      1696
      1695      1693      1699      1696      1696      1700      1701      1702
      1696      1700      1701      1703      1696      1700      1701      1704
      1697      1696      1700      1701      1698      1696      1700      1701
      1699      1696      1700      1701      1700      1701      1704      1705
      1700      1701      1704      1706      1700      1701      1704      1712
      1701      1704      1706      1707      1701      1704      1712      1713
      1701      1704      1712      1714      1701      1704      1712      1715
      1702      1701      1704      1705      1702      1701      1704      1706
      1702      1701      1704      1712      1703      1701      1704      1705
      1703      1701      1704      1706      1703      1701      1704      1712
      1704      1706      1707      1708      1704      1706      1707      1709
      1704      1712      1715      1716      1705      1704      1706      1707
      1705      1704      1712      1713      1705      1704      1712      1714
      1705      1704      1712      1715      1706      1704      1712      1713
      1706      1704      1712      1714      1706      1704      1712      1715
      1706      1707      1709      1710      1706      1707      1709      1711
      1706      1707      1709      1721      1707      1706      1704      1712
      1707      1709      1721      1722      1707      1709      1721      1723
      1707      1709      1721      1724      1708      1707      1709      1710
      1708      1707      1709      1711      1708      1707      1709      1721
      1709      1721      1724      1725      1709      1721      1724      1726
      1709      1721      1724      1727      1710      1709      1721      1722
      1710      1709      1721      1723      1710      1709      1721      1724
      1711      1709      1721      1722      1711      1709      1721      1723
      1711      1709      1721      1724      1712      1715      1716      1717
      1712      1715      1716      1718      1713      1712      1715      1716
      1714      1712      1715      1716      1715      1716      1718      1719
      1715      1716      1718      1720      1715      1716      1718      1768
      1716      1718      1768      1769      1716      1718      1768      1770
      1716      1718      1768      1771      1717      1716      1718      1719
      1717      1716      1718      1720      1717      1716      1718      1768
      1718      1768      1771      1772      1718      1768      1771      1773
      1718      1768      1771      1774      1719      1718      1768      1769
      1719      1718      1768      1770      1719      1718      1768      1771
      1720      1718      1768      1769      1720      1718      1768      1770
      1720      1718      1768      1771      1721      1724      1727      1728
      1721      1724      1727      1729      1721      1724      1727      1730
      1722      1721      1724      1725      1722      1721      1724      1726
      1722      1721      1724      1727      1723      1721      1724      1725
      1723      1721      1724      1726      1723      1721      1724      1727
      1724      1727      1730      1731      1724      1727      1730      1732
      1724      1727      1730      1733      1725      1724      1727      1728
      1725      1724      1727      1729      1725      1724      1727      1730
      1726      1724      1727      1728      1726      1724      1727      1729
      1726      1724      1727      1730      1727      1730      1733      1734
      1727      1730      1733      1735      1727      1730      1733      1736
      1728      1727      1730      1731      1728      1727      1730      1732
      1728      1727      1730      1733      1729      1727      1730      1731
      1729      1727      1730      1732      1729      1727      1730      1733
      1730      1733      1736      1737      1730      1733      1736      1738
      1730      1733      1736      1739      1731      1730      1733      1734
      1731      1730      1733      1735      1731      1730      1733      1736
      1732      1730      1733      1734      1732      1730      1733      1735
      1732      1730      1733      1736      1733      1736      1739      1740
      1733      1736      1739      1741      1734      1733      1736      1737
      1734      1733      1736      1738      1734      1733      1736      1739
      1735      1733      1736      1737      1735      1733      1736      1738
      1735      1733      1736      1739      1736      1739      1741      1742
      1736      1739      1741      1743      1737      1736      1739      1740
      1737      1736      1739      1741      1738      1736      1739      1740
      1738      1736      1739      1741      1739      1741      1743      1744
      1739      1741      1743      1745      1739      1741      1743      1746
      1740      1739      1741      1742      1740      1739      1741      1743
      1741      1743      1746      1747      1741      1743      1746      1748
      1741      1743      1746      1749      1742      1741      1743      1744
      1742      1741      1743      1745      1742      1741      1743      1746
      1743      1746      1749      1750      1743      1746      1749      1751
      1743      1746      1749      1752      1744      1743      1746      1747
      1744      1743      1746      1748      1744      1743      1746      1749
      1745      1743      1746      1747      1745      1743      1746      1748
      1745      1743      1746      1749      1746      1749      1752      1753
      1746      1749      1752      1754      1746      1749      1752      1755
      1747      1746      1749      1750      1747      1746      1749      1751
      1747      1746      1749      1752      1748      1746      1749      1750
      1748      1746      1749      1751      1748      1746      1749      1752
      1749      1752      1755      1756      1749      1752      1755      1757
      1749      1752      1755      1758      1750      1749      1752      1753
      1750      1749      1752      1754      1750      1749      1752      1755
      1751      1749      1752      1753      1751      1749      1752      1754
      1751      1749      1752      1755      1752      1755      1758      1759
      1752      1755      1758      1760      1752      1755      1758      1761
      1753      1752      1755      1756      1753      1752      1755      1757
      1753      1752      1755      1758      1754      1752      1755      1756
      1754      1752      1755      1757      1754      1752      1755      1758
      1755      1758      1761      1762      1755      1758      1761      1763
      1755      1758      1761      1764      1756      1755      1758      1759
      1756      1755      1758      1760      1756      1755      1758      1761
      1757      1755      1758      1759      1757      1755      1758      1760
      1757      1755      1758      1761      1758      1761      1764      1765
      1758      1761      1764      1766      1758      1761      1764      1767
      1759      1758      1761      1762      1759      1758      1761      1763
      1759      1758      1761      1764      1760      1758      1761      1762
      1760      1758      1761      1763      1760      1758      1761      1764
      1762      1761      1764      1765      1762      1761      1764      1766
      1762      1761      1764      1767      1763      1761      1764      1765
      1763      1761      1764      1766      1763      1761      1764      1767
      1768      1771      1774      1775      1768      1771      1774      1776
      1768      1771      1774      1777      1769      1768      1771      1772
      1769      1768      1771      1773      1769      1768      1771      1774
      1770      1768      1771      1772      1770      1768      1771      1773
      1770      1768      1771      1774      1771      1774      1777      1778
      1771      1774      1777      1779      1771      1774      1777      1780
      1772      1771      1774      1775      1772      1771      1774      1776
      1772      1771      1774      1777      1773      1771      1774      1775
      1773      1771      1774      1776      1773      1771      1774      1777
      1774      1777      1780      1781      1774      1777      1780      1782
      1774      1777      1780      1783      1775      1774      1777      1778
      1775      1774      1777      1779      1775      1774      1777      1780
      1776      1774      1777      1778      1776      1774      1777      1779
      1776      1774      1777      1780      1777      1780      1783      1784
      1777      1780      1783      1785      1777      1780      1783      1786
      1778      1777      1780      1781      1778      1777      1780      1782
      1778      1777      1780      1783      1779      1777      1780      1781
      1779      1777      1780      1782      1779      1777      1780      1783
      1780      1783      1786      1787      1780      1783      1786      1788
      1780      1783      1786      1789      1781      1780      1783      1784
      1781      1780      1783      1785      1781      1780      1783      1786
      1782      1780      1783      1784      1782      1780      1783      1785
      1782      1780      1783      1786      1783      1786      1789      1790
      1783      1786      1789      1791      1783      1786      1789      1792
      1784      1783      1786      1787      1784      1783      1786      1788
      1784      1783      1786      1789      1785      1783      1786      1787
      1785      1783      1786      1788      1785      1783      1786      1789
      1786      1789      1792      1793      1786      1789      1792      1794
      1786      1789      1792      1795      1787      1786      1789      1790
      1787      1786      1789      1791      1787      1786      1789      1792
      1788      1786      1789      1790      1788      1786      1789      1791
      1788      1786      1789      1792      1789      1792      1795      1796
      1789      1792      1795      1797      1789      1792      1795      1798
      1790      1789      1792      1793      1790      1789      1792      1794
      1790      1789      1792      1795      1791      1789      1792      1793
      1791      1789      1792      1794      1791      1789      1792      1795
      1792      1795      1798      1799      1792      1795      1798      1800
      1792      1795      1798      1801      1793      1792      1795      1796
      1793      1792      1795      1797      1793      1792      1795      1798
      1794      1792      1795      1796      1794      1792      1795      1797
      1794      1792      1795      1798      1795      1798      1801      1802
      1795      1798      1801      1803      1795      1798      1801      1804
      1796      1795      1798      1799      1796      1795      1798      1800
      1796      1795      1798      1801      1797      1795      1798      1799
      1797      1795      1798      1800      1797      1795      1798      1801
      1798      1801      1804      1805      1798      1801      1804      1806
      1798      1801      1804      1807      1799      1798      1801      1802
      1799      1798      1801      1803      1799      1798      1801      1804
      1800      1798      1801      1802      1800      1798      1801      1803
      1800      1798      1801      1804      1801      1804      1807      1808
      1801      1804      1807      1809      1801      1804      1807      1810
      1802      1801      1804      1805      1802      1801      1804      1806
      1802      1801      1804      1807      1803      1801      1804      1805
      1803      1801      1804      1806      1803      1801      1804      1807
      1805      1804      1807      1808      1805      1804      1807      1809
      1805      1804      1807      1810      1806      1804      1807      1808
      1806      1804      1807      1809      1806      1804      1807      1810
      1811      1812      1827      1828      1811      1812      1827      1829
      1811      1812      1827      1833      1812      1811      1815      1816
      1812      1811      1815      1817      1812      1811      1815      1818
      1812      1811      1819      1820      1812      1811      1819      1821
      1812      1811      1819      1822      1812      1811      1823      1824
      1812      1811      1823      1825      1812      1811      1823      1826
      1812      1827      1833      1830      1813      1812      1811      1815
      1813      1812      1811      1819      1813      1812      1811      1823
      1813      1812      1827      1828      1813      1812      1827      1829
      1813      1812      1827      1833      1814      1812      1811      1815
      1814      1812      1811      1819      1814      1812      1811      1823
      1814      1812      1827      1828      1814      1812      1827      1829
      1814      1812      1827      1833      1815      1811      1812      1827
      1815      1811      1819      1820      1815      1811      1819      1821
      1815      1811      1819      1822      1815      1811      1823      1824
      1815      1811      1823      1825      1815      1811      1823      1826
      1816      1815      1811      1819      1816      1815      1811      1823
      1817      1815      1811      1819      1817      1815      1811      1823
      1818      1815      1811      1819      1818      1815      1811      1823
      1819      1811      1812      1827      1819      1811      1823      1824
      1819      1811      1823      1825      1819      1811      1823      1826
      1820      1819      1811      1823      1821      1819      1811      1823
      1822      1819      1811      1823      1823      1811      1812      1827
      1827      1833      1830      1831      1827      1833      1830      1832
      1827      1833      1830      1834      1828      1827      1833      1830
      1829      1827      1833      1830      1830      1834      1835      1836
      1830      1834      1835      1837      1830      1834      1835      1838
      1831      1830      1834      1835      1832      1830      1834      1835
      1833      1830      1834      1835      1834      1835      1838      1839
      1834      1835      1838      1840      1834      1835      1838      1846
      1835      1838      1840      1841      1835      1838      1846      1847
      1835      1838      1846      1848      1835      1838      1846      1849
      1836      1835      1838      1839      1836      1835      1838      1840
      1836      1835      1838      1846      1837      1835      1838      1839
      1837      1835      1838      1840      1837      1835      1838      1846
      1838      1840      1841      1842      1838      1840      1841      1843
      1838      1846      1849      1850      1839      1838      1840      1841
      1839      1838      1846      1847      1839      1838      1846      1848
      1839      1838      1846      1849      1840      1838      1846      1847
      1840      1838      1846      1848      1840      1838      1846      1849
      1840      1841      1843      1844      1840      1841      1843      1845
      1840      1841      1843      1855      1841      1840      1838      1846
      1841      1843      1855      1856      1841      1843      1855      1857
      1841      1843      1855      1858      1842      1841      1843      1844
      1842      1841      1843      1845      1842      1841      1843      1855
      1843      1855      1858      1859      1843      1855      1858      1860
      1843      1855      1858      1861      1844      1843      1855      1856
      1844      1843      1855      1857      1844      1843      1855      1858
      1845      1843      1855      1856      1845      1843      1855      1857
      1845      1843      1855      1858      1846      1849      1850      1851
      1846      1849      1850      1852      1847      1846      1849      1850
      1848      1846      1849      1850      1849      1850      1852      1853
      1849      1850      1852      1854      1849      1850      1852      1902
      1850      1852      1902      1903      1850      1852      1902      1904
      1850      1852      1902      1905      1851      1850      1852      1853
      1851      1850      1852      1854      1851      1850      1852      1902
      1852      1902      1905      1906      1852      1902      1905      1907
      1852      1902      1905      1908      1853      1852      1902      1903
      1853      1852      1902      1904      1853      1852      1902      1905
      1854      1852      1902      1903      1854      1852      1902      1904
      1854      1852      1902      1905      1855      1858      1861      1862
      1855      1858      1861      1863      1855      1858      1861      1864
      1856      1855      1858      1859      1856      1855      1858      1860
      1856      1855      1858      1861      1857      1855      1858      1859
      1857      1855      1858      1860      1857      1855      1858      1861
      1858      1861      1864      1865      1858      1861      1864      1866
      1858      1861      1864      1867      1859      1858      1861      1862
      1859      1858      1861      1863      1859      1858      1861      1864
      1860      1858      1861      1862      1860      1858      1861      1863
      1860      1858      1861      1864      1861      1864      1867      1868
      1861      1864      1867      1869      1861      1864      1867      1870
      1862      1861      1864      1865      1862      1861      1864      1866
      1862      1861      1864      1867      1863      1861      1864      1865
      1863      1861      1864      1866      1863      1861      1864      1867
      1864      1867      1870      1871      1864      1867      1870      1872
      1864      1867      1870      1873      1865      1864      1867      1868
      1865      1864      1867      1869      1865      1864      1867      1870
      1866      1864      1867      1868      1866      1864      1867      1869
      1866      1864      1867      1870      1867      1870      1873      1874
      1867      1870      1873      1875      1868      1867      1870      1871
      1868      1867      1870      1872      1868      1867      1870      1873
      1869      1867      1870      1871      1869      1867      1870      1872
      1869      1867      1870      1873      1870      1873      1875      1876
      1870      1873      1875      1877      1871      1870      1873      1874
      1871      1870      1873      1875      1872      1870      1873      1874
      1872      1870      1873      1875      1873      1875      1877      1878
      1873      1875      1877      1879      1873      1875      1877      1880
      1874      1873      1875      1876      1874      1873      1875      1877
      1875      1877      1880      1881      1875      1877      1880      1882
      1875      1877      1880      1883      1876      1875      1877      1878
      1876      1875      1877      1879      1876      1875      1877      1880
      1877      1880      1883      1884      1877      1880      1883      1885
      1877      1880      1883      1886      1878      1877      1880      1881
      1878      1877      1880      1882      1878      1877      1880      1883
      1879      1877      1880      1881      1879      1877      1880      1882
      1879      1877      1880      1883      1880      1883      1886      1887
      1880      1883      1886      1888      1880      1883      1886      1889
      1881      1880      1883      1884      1881      1880      1883      1885
      1881      1880      1883      1886      1882      1880      1883      1884
      1882      1880      1883      1885      1882      1880      1883      1886
      1883      1886      1889      1890      1883      1886      1889      1891
      1883      1886      1889      1892      1884      1883      1886      1887
      1884      1883      1886      1888      1884      1883      1886      1889
      1885      1883      1886      1887      1885      1883      1886      1888
      1885      1883      1886      1889      1886      1889      1892      1893
      1886      1889      1892      1894      1886      1889      1892      1895
      1887      1886      1889      1890      1887      1886      1889      1891
      1887      1886      1889      1892      1888      1886      1889      1890
      1888      1886      1889      1891      1888      1886      1889      1892
      1889      1892      1895      1896      1889      1892      1895      1897
      1889      1892      1895      1898      1890      1889      1892      1893
      1890      1889      1892      1894      1890      1889      1892      1895
      1891      1889      1892      1893      1891      1889      1892      1894
      1891      1889      1892      1895      1892      1895      1898      1899
      1892      1895      1898      1900      1892      1895      1898      1901
      1893      1892      1895      1896      1893      1892      1895      1897
      1893      1892      1895      1898      1894      1892      1895      1896
      1894      1892      1895      1897      1894      1892      1895      1898
      1896      1895      1898      1899      1896      1895      1898      1900
      1896      1895      1898      1901      1897      1895      1898      1899
      1897      1895      1898      1900      1897      1895      1898      1901
      1902      1905      1908      1909      1902      1905      1908      1910
      1902      1905      1908      1911      1903      1902      1905      1906
      1903      1902      1905      1907      1903      1902      1905      1908
      1904      1902      1905      1906      1904      1902      1905      1907
      1904      1902      1905      1908      1905      1908      1911      1912
      1905      1908      1911      1913      1905      1908      1911      1914
      1906      1905      1908      1909      1906      1905      1908      1910
      1906      1905      1908      1911      1907      1905      1908      1909
      1907      1905      1908      1910      1907      1905      1908      1911
      1908      1911      1914      1915      1908      1911      1914      1916
      1908      1911      1914      1917      1909      1908      1911      1912
      1909      1908      1911      1913      1909      1908      1911      1914
      1910      1908      1911      1912      1910      1908      1911      1913
      1910      1908      1911      1914      1911      1914      1917      1918
      1911      1914      1917      1919      1911      1914      1917      1920
      1912      1911      1914      1915      1912      1911      1914      1916
      1912      1911      1914      1917      1913      1911      1914      1915
      1913      1911      1914      1916      1913      1911      1914      1917
      1914      1917      1920      1921      1914      1917      1920      1922
      1914      1917      1920      1923      1915      1914      1917      1918
      1915      1914      1917      1919      1915      1914      1917      1920
      1916      1914      1917      1918      1916      1914      1917      1919
      1916      1914      1917      1920      1917      1920      1923      1924
      1917      1920      1923      1925      1917      1920      1923      1926
      1918      1917      1920      1921      1918      1917      1920      1922
      1918      1917      1920      1923      1919      1917      1920      1921
      1919      1917      1920      1922      1919      1917      1920      1923
      1920      1923      1926      1927      1920      1923      1926      1928
      1920      1923      1926      1929      1921      1920      1923      1924
      1921      1920      1923      1925      1921      1920      1923      1926
      1922      1920      1923      1924      1922      1920      1923      1925
      1922      1920      1923      1926      1923      1926      1929      1930
      1923      1926      1929      1931      1923      1926      1929      1932
      1924      1923      1926      1927      1924      1923      1926      1928
      1924      1923      1926      1929      1925      1923      1926      1927
      1925      1923      1926      1928      1925      1923      1926      1929
      1926      1929      1932      1933      1926      1929      1932      1934
      1926      1929      1932      1935      1927      1926      1929      1930
      1927      1926      1929      1931      1927      1926      1929      1932
      1928      1926      1929      1930      1928      1926      1929      1931
      1928      1926      1929      1932      1929      1932      1935      1936
      1929      1932      1935      1937      1929      1932      1935      1938
      1930      1929      1932      1933      1930      1929      1932      1934
      1930      1929      1932      1935      1931      1929      1932      1933
      1931      1929      1932      1934      1931      1929      1932      1935
      1932      1935      1938      1939      1932      1935      1938      1940
      1932      1935      1938      1941      1933      1932      1935      1936
      1933      1932      1935      1937      1933      1932      1935      1938
      1934      1932      1935      1936      1934      1932      1935      1937
      1934      1932      1935      1938      1935      1938      1941      1942
      1935      1938      1941      1943      1935      1938      1941      1944
      1936      1935      1938      1939      1936      1935      1938      1940
      1936      1935      1938      1941      1937      1935      1938      1939
      1937      1935      1938      1940      1937      1935      1938      1941
      1939      1938      1941      1942      1939      1938      1941      1943
      1939      1938      1941      1944      1940      1938      1941      1942
      1940      1938      1941      1943      1940      1938      1941      1944
      1945      1946      1961      1962      1945      1946      1961      1963
      1945      1946      1961      1967      1946      1945      1949      1950
      1946      1945      1949      1951      1946      1945      1949      1952
      1946      1945      1953      1954      1946      1945      1953      1955
      1946      1945      1953      1956      1946      1945      1957      1958
      1946      1945      1957      1959      1946      1945      1957      1960
      1946      1961      1967      1964      1947      1946      1945      1949
      1947      1946      1945      1953      1947      1946      1945      1957
      1947      1946      1961      1962      1947      1946      1961      1963
      1947      1946      1961      1967      1948      1946      1945      1949
      1948      1946      1945      1953      1948      1946      1945      1957
      1948      1946      1961      1962      1948      1946      1961      1963
      1948      1946      1961      1967      1949      1945      1946      1961
      1949      1945      1953      1954      1949      1945      1953      1955
      1949      1945      1953      1956      1949      1945      1957      1958
      1949      1945      1957      1959      1949      1945      1957      1960
      1950      1949      1945      1953      1950      1949      1945      1957
      1951      1949      1945      1953      1951      1949      1945      1957
      1952      1949      1945      1953      1952      1949      1945      1957
      1953      1945      1946      1961      1953      1945      1957      1958
      1953      1945      1957      1959      1953      1945      1957      1960
      1954      1953      1945      1957      1955      1953      1945      1957
      1956      1953      1945      1957      1957      1945      1946      1961
      1961      1967      1964      1965      1961      1967      1964      1966
      1961      1967      1964      1968      1962      1961      1967      1964
      1963      1961      1967      1964      1964      1968      1969      1970
      1964      1968      1969      1971      1964      1968      1969      1972
      1965      1964      1968      1969      1966      1964      1968      1969
      1967      1964      1968      1969      1968      1969      1972      1973
      1968      1969      1972      1974      1968      1969      1972      1980
      1969      1972      1974      1975      1969      1972      1980      1981
      1969      1972      1980      1982      1969      1972      1980      1983
      1970      1969      1972      1973      1970      1969      1972      1974
      1970      1969      1972      1980      1971      1969      1972      1973
      1971      1969      1972      1974      1971      1969      1972      1980
      1972      1974      1975      1976      1972      1974      1975      1977
      1972      1980      1983      1984      1973      1972      1974      1975
      1973      1972      1980      1981      1973      1972      1980      1982
      1973      1972      1980      1983      1974      1972      1980      1981
      1974      1972      1980      1982      1974      1972      1980      1983
      1974      1975      1977      1978      1974      1975      1977      1979
      1974      1975      1977      1989      1975      1974      1972      1980
      1975      1977      1989      1990      1975      1977      1989      1991
      1975      1977      1989      1992      1976      1975      1977      1978
      1976      1975      1977      1979      1976      1975      1977      1989
      1977      1989      1992      1993      1977      1989      1992      1994
      1977      1989      1992      1995      1978      1977      1989      1990
      1978      1977      1989      1991      1978      1977      1989      1992
      1979      1977      1989      1990      1979      1977      1989      1991
      1979      1977      1989      1992      1980      1983      1984      1985
      1980      1983      1984      1986      1981      1980      1983      1984
      1982      1980      1983      1984      1983      1984      1986      1987
      1983      1984      1986      1988      1983      1984      1986      2036
      1984      1986      2036      2037      1984      1986      2036      2038
      1984      1986      2036      2039      1985      1984      1986      1987
      1985      1984      1986      1988      1985      1984      1986      2036
      1986      2036      2039      2040      1986      2036      2039      2041
      1986      2036      2039      2042      1987      1986      2036      2037
      1987      1986      2036      2038      1987      1986      2036      2039
      1988      1986      2036      2037      1988      1986      2036      2038
      1988      1986      2036      2039      1989      1992      1995      1996
      1989      1992      1995      1997      1989      1992      1995      1998
      1990      1989      1992      1993      1990      1989      1992      1994
      1990      1989      1992      1995      1991      1989      1992      1993
      1991      1989      1992      1994      1991      1989      1992      1995
      1992      1995      1998      1999      1992      1995      1998      2000
      1992      1995      1998      2001      1993      1992      1995      1996
      1993      1992      1995      1997      1993      1992      1995      1998
      1994      1992      1995      1996      1994      1992      1995      1997
      1994      1992      1995      1998      1995      1998      2001      2002
      1995      1998      2001      2003      1995      1998      2001      2004
      1996      1995      1998      1999      1996      1995      1998      2000
      1996      1995      1998      2001      1997      1995      1998      1999
      1997      1995      1998      2000      1997      1995      1998      2001
      1998      2001      2004      2005      1998      2001      2004      2006
      1998      2001      2004      2007      1999      1998      2001      2002
      1999      1998      2001      2003      1999      1998      2001      2004
      2000      1998      2001      2002      2000      1998      2001      2003
      2000      1998      2001      2004      2001      2004      2007      2008
      2001      2004      2007      2009      2002      2001      2004      2005
      2002      2001      2004      2006      2002      2001      2004      2007
      2003      2001      2004      2005      2003      2001      2004      2006
      2003      2001      2004      2007      2004      2007      2009      2010
      2004      2007      2009      2011      2005      2004      2007      2008
      2005      2004      2007      2009      2006      2004      2007      2008
      2006      2004      2007      2009      2007      2009      2011      2012
      2007      2009      2011      2013      2007      2009      2011      2014
      2008      2007      2009      2010      2008      2007      2009      2011
      2009      2011      2014      2015      2009      2011      2014      2016
      2009      2011      2014      2017      2010      2009      2011      2012
      2010      2009      2011      2013      2010      2009      2011      2014
      2011      2014      2017      2018      2011      2014      2017      2019
      2011      2014      2017      2020      2012      2011      2014      2015
      2012      2011      2014      2016      2012      2011      2014      2017
      2013      2011      2014      2015      2013      2011      2014      2016
      2013      2011      2014      2017      2014      2017      2020      2021
      2014      2017      2020      2022      2014      2017      2020      2023
      2015      2014      2017      2018      2015      2014      2017      2019
      2015      2014      2017      2020      2016      2014      2017      2018
      2016      2014      2017      2019      2016      2014      2017      2020
      2017      2020      2023      2024      2017      2020      2023      2025
      2017      2020      2023      2026      2018      2017      2020      2021
      2018      2017      2020      2022      2018      2017      2020      2023
      2019      2017      2020      2021      2019      2017      2020      2022
      2019      2017      2020      2023      2020      2023      2026      2027
      2020      2023      2026      2028      2020      2023      2026      2029
      2021      2020      2023      2024      2021      2020      2023      2025
      2021      2020      2023      2026      2022      2020      2023      2024
      2022      2020      2023      2025      2022      2020      2023      2026
      2023      2026      2029      2030      2023      2026      2029      2031
      2023      2026      2029      2032      2024      2023      2026      2027
      2024      2023      2026      2028      2024      2023      2026      2029
      2025      2023      2026      2027      2025      2023      2026      2028
      2025      2023      2026      2029      2026      2029      2032      2033
      2026      2029      2032      2034      2026      2029      2032      2035
      2027      2026      2029      2030      2027      2026      2029      2031
      2027      2026      2029      2032      2028      2026      2029      2030
      2028      2026      2029      2031      2028      2026      2029      2032
      2030      2029      2032      2033      2030      2029      2032      2034
      2030      2029      2032      2035      2031      2029      2032      2033
      2031      2029      2032      2034      2031      2029      2032      2035
      2036      2039      2042      2043      2036      2039      2042      2044
      2036      2039      2042      2045      2037      2036      2039      2040
      2037      2036      2039      2041      2037      2036      2039      2042
      2038      2036      2039      2040      2038      2036      2039      2041
      2038      2036      2039      2042      2039      2042      2045      2046
      2039      2042      2045      2047      2039      2042      2045      2048
      2040      2039      2042      2043      2040      2039      2042      2044
      2040      2039      2042      2045      2041      2039      2042      2043
      2041      2039      2042      2044      2041      2039      2042      2045
      2042      2045      2048      2049      2042      2045      2048      2050
      2042      2045      2048      2051      2043      2042      2045      2046
      2043      2042      2045      2047      2043      2042      2045      2048
      2044      2042      2045      2046      2044      2042      2045      2047
      2044      2042      2045      2048      2045      2048      2051      2052
      2045      2048      2051      2053      2045      2048      2051      2054
      2046      2045      2048      2049      2046      2045      2048      2050
      2046      2045      2048      2051      2047      2045      2048      2049
      2047      2045      2048      2050      2047      2045      2048      2051
      2048      2051      2054      2055      2048      2051      2054      2056
      2048      2051      2054      2057      2049      2048      2051      2052
      2049      2048      2051      2053      2049      2048      2051      2054
      2050      2048      2051      2052      2050      2048      2051      2053
      2050      2048      2051      2054      2051      2054      2057      2058
      2051      2054      2057      2059      2051      2054      2057      2060
      2052      2051      2054      2055      2052      2051      2054      2056
      2052      2051      2054      2057      2053      2051      2054      2055
      2053      2051      2054      2056      2053      2051      2054      2057
      2054      2057      2060      2061      2054      2057      2060      2062
      2054      2057      2060      2063      2055      2054      2057      2058
      2055      2054      2057      2059      2055      2054      2057      2060
      2056      2054      2057      2058      2056      2054      2057      2059
      2056      2054      2057      2060      2057      2060      2063      2064
      2057      2060      2063      2065      2057      2060      2063      2066
      2058      2057      2060      2061      2058      2057      2060      2062
      2058      2057      2060      2063      2059      2057      2060      2061
      2059      2057      2060      2062      2059      2057      2060      2063
      2060      2063      2066      2067      2060      2063      2066      2068
      2060      2063      2066      2069      2061      2060      2063      2064
      2061      2060      2063      2065      2061      2060      2063      2066
      2062      2060      2063      2064      2062      2060      2063      2065
      2062      2060      2063      2066      2063      2066      2069      2070
      2063      2066      2069      2071      2063      2066      2069      2072
      2064      2063      2066      2067      2064      2063      2066      2068
      2064      2063      2066      2069      2065      2063      2066      2067
      2065      2063      2066      2068      2065      2063      2066      2069
      2066      2069      2072      2073      2066      2069      2072      2074
      2066      2069      2072      2075      2067      2066      2069      2070
      2067      2066      2069      2071      2067      2066      2069      2072
      2068      2066      2069      2070      2068      2066      2069      2071
      2068      2066      2069      2072      2069      2072      2075      2076
      2069      2072      2075      2077      2069      2072      2075      2078
      2070      2069      2072      2073      2070      2069      2072      2074
      2070      2069      2072      2075      2071      2069      2072      2073
      2071      2069      2072      2074      2071      2069      2072      2075
      2073      2072      2075      2076      2073      2072      2075      2077
      2073      2072      2075      2078      2074      2072      2075      2076
      2074      2072      2075      2077      2074      2072      2075      2078
      2079      2080      2095      2096      2079      2080      2095      2097
      2079      2080      2095      2101      2080      2079      2083      2084
      2080      2079      2083      2085      2080      2079      2083      2086
      2080      2079      2087      2088      2080      2079      2087      2089
      2080      2079      2087      2090      2080      2079      2091      2092
      2080      2079      2091      2093      2080      2079      2091      2094
      2080      2095      2101      2098      2081      2080      2079      2083
      2081      2080      2079      2087      2081      2080      2079      2091
      2081      2080      2095      2096      2081      2080      2095      2097
      2081      2080      2095      2101      2082      2080      2079      2083
      2082      2080      2079      2087      2082      2080      2079      2091
      2082      2080      2095      2096      2082      2080      2095      2097
      2082      2080      2095      2101      2083      2079      2080      2095
      2083      2079      2087      2088      2083      2079      2087      2089
      2083      2079      2087      2090      2083      2079      2091      2092
      2083      2079      2091      2093      2083      2079      2091      2094
      2084      2083      2079      2087      2084      2083      2079      2091
      2085      2083      2079      2087      2085      2083      2079      2091
      2086      2083      2079      2087      2086      2083      2079      2091
      2087      2079      2080      2095      2087      2079      2091      2092
      2087      2079      2091      2093      2087      2079      2091      2094
      2088      2087      2079      2091      2089      2087      2079      2091
      2090      2087      2079      2091      2091      2079      2080      2095
      2095      2101      2098      2099      2095      2101      2098      2100
      2095      2101      2098      2102      2096      2095      2101      2098
      2097      2095      2101      2098      2098      2102      2103      2104
      2098      2102      2103      2105      2098      2102      2103      2106
      2099      2098      2102      2103      2100      2098      2102      2103
      2101      2098      2102      2103      2102      2103      2106      2107
      2102      2103      2106      2108      2102      2103      2106      2114
      2103      2106      2108      2109      2103      2106      2114      2115
      2103      2106      2114      2116      2103      2106      2114      2117
      2104      2103      2106      2107      2104      2103      2106      2108
      2104      2103      2106      2114      2105      2103      2106      2107
      2105      2103      2106      2108      2105      2103      2106      2114
      2106      2108      2109      2110      2106      2108      2109      2111
      2106      2114      2117      2118      2107      2106      2108      2109
      2107      2106      2114      2115      2107      2106      2114      2116
      2107      2106      2114      2117      2108      2106      2114      2115
      2108      2106      2114      2116      2108      2106      2114      2117
      2108      2109      2111      2112      2108      2109      2111      2113
      2108      2109      2111      2123      2109      2108      2106      2114
      2109      2111      2123      2124      2109      2111      2123      2125
      2109      2111      2123      2126      2110      2109      2111      2112
      2110      2109      2111      2113      2110      2109      2111      2123
      2111      2123      2126      2127      2111      2123      2126      2128
      2111      2123      2126      2129      2112      2111      2123      2124
      2112      2111      2123      2125      2112      2111      2123      2126
      2113      2111      2123      2124      2113      2111      2123      2125
      2113      2111      2123      2126      2114      2117      2118      2119
      2114      2117      2118      2120      2115      2114      2117      2118
      2116      2114      2117      2118      2117      2118      2120      2121
      2117      2118      2120      2122      2117      2118      2120      2170
      2118      2120      2170      2171      2118      2120      2170      2172
      2118      2120      2170      2173      2119      2118      2120      2121
      2119      2118      2120      2122      2119      2118      2120      2170
      2120      2170      2173      2174      2120      2170      2173      2175
      2120      2170      2173      2176      2121      2120      2170      2171
      2121      2120      2170      2172      2121      2120      2170      2173
      2122      2120      2170      2171      2122      2120      2170      2172
      2122      2120      2170      2173      2123      2126      2129      2130
      2123      2126      2129      2131      2123      2126      2129      2132
      2124      2123      2126      2127      2124      2123      2126      2128
      2124      2123      2126      2129      2125      2123      2126      2127
      2125      2123      2126      2128      2125      2123      2126      2129
      2126      2129      2132      2133      2126      2129      2132      2134
      2126      2129      2132      2135      2127      2126      2129      2130
      2127      2126      2129      2131      2127      2126      2129      2132
      2128      2126      2129      2130      2128      2126      2129      2131
      2128      2126      2129      2132      2129      2132      2135      2136
      2129      2132      2135      2137      2129      2132      2135      2138
      2130      2129      2132      2133      2130      2129      2132      2134
      2130      2129      2132      2135      2131      2129      2132      2133
      2131      2129      2132      2134      2131      2129      2132      2135
      2132      2135      2138      2139      2132      2135      2138      2140
      2132      2135      2138      2141      2133      2132      2135      2136
      2133      2132      2135      2137      2133      2132      2135      2138
      2134      2132      2135      2136      2134      2132      2135      2137
      2134      2132      2135      2138      2135      2138      2141      2142
      2135      2138      2141      2143      2136      2135      2138      2139
      2136      2135      2138      2140      2136      2135      2138      2141
      2137      2135      2138      2139      2137      2135      2138      2140
      2137      2135      2138      2141      2138      2141      2143      2144
      2138      2141      2143      2145      2139      2138      2141      2142
      2139      2138      2141      2143      2140      2138      2141      2142
      2140      2138      2141      2143      2141      2143      2145      2146
      2141      2143      2145      2147      2141      2143      2145      2148
      2142      2141      2143      2144      2142      2141      2143      2145
      2143      2145      2148      2149      2143      2145      2148      2150
      2143      2145      2148      2151      2144      2143      2145      2146
      2144      2143      2145      2147      2144      2143      2145      2148
      2145      2148      2151      2152      2145      2148      2151      2153
      2145      2148      2151      2154      2146      2145      2148      2149
      2146      2145      2148      2150      2146      2145      2148      2151
      2147      2145      2148      2149      2147      2145      2148      2150
      2147      2145      2148      2151      2148      2151      2154      2155
      2148      2151      2154      2156      2148      2151      2154      2157
      2149      2148      2151      2152      2149      2148      2151      2153
      2149      2148      2151      2154      2150      2148      2151      2152
      2150      2148      2151      2153      2150      2148      2151      2154
      2151      2154      2157      2158      2151      2154      2157      2159
      2151      2154      2157      2160      2152      2151      2154      2155
      2152      2151      2154      2156      2152      2151      2154      2157
      2153      2151      2154      2155      2153      2151      2154      2156
      2153      2151      2154      2157      2154      2157      2160      2161
      2154      2157      2160      2162      2154      2157      2160      2163
      2155      2154      2157      2158      2155      2154      2157      2159
      2155      2154      2157      2160      2156      2154      2157      2158
      2156      2154      2157      2159      2156      2154      2157      2160
      2157      2160      2163      2164      2157      2160      2163      2165
      2157      2160      2163      2166      2158      2157      2160      2161
      2158      2157      2160      2162      2158      2157      2160      2163
      2159      2157      2160      2161      2159      2157      2160      2162
      2159      2157      2160      2163      2160      2163      2166      2167
      2160      2163      2166      2168      2160      2163      2166      2169
      2161      2160      2163      2164      2161      2160      2163      2165
      2161      2160      2163      2166      2162      2160      2163      2164
      2162      2160      2163      2165      2162      2160      2163      2166
      2164      2163      2166      2167      2164      2163      2166      2168
      2164      2163      2166      2169      2165      2163      2166      2167
      2165      2163      2166      2168      2165      2163      2166      2169
      2170      2173      2176      2177      2170      2173      2176      2178
      2170      2173      2176      2179      2171      2170      2173      2174
      2171      2170      2173      2175      2171      2170      2173      2176
      2172      2170      2173      2174      2172      2170      2173      2175
      2172      2170      2173      2176      2173      2176      2179      2180
      2173      2176      2179      2181      2173      2176      2179      2182
      2174      2173      2176      2177      2174      2173      2176      2178
      2174      2173      2176      2179      2175      2173      2176      2177
      2175      2173      2176      2178      2175      2173      2176      2179
      2176      2179      2182      2183      2176      2179      2182      2184
      2176      2179      2182      2185      2177      2176      2179      2180
      2177      2176      2179      2181      2177      2176      2179      2182
      2178      2176      2179      2180      2178      2176      2179      2181
      2178      2176      2179      2182      2179      2182      2185      2186
      2179      2182      2185      2187      2179      2182      2185      2188
      2180      2179      2182      2183      2180      2179      2182      2184
      2180      2179      2182      2185      2181      2179      2182      2183
      2181      2179      2182      2184      2181      2179      2182      2185
      2182      2185      2188      2189      2182      2185      2188      2190
      2182      2185      2188      2191      2183      2182      2185      2186
      2183      2182      2185      2187      2183      2182      2185      2188
      2184      2182      2185      2186      2184      2182      2185      2187
      2184      2182      2185      2188      2185      2188      2191      2192
      2185      2188      2191      2193      2185      2188      2191      2194
      2186      2185      2188      2189      2186      2185      2188      2190
      2186      2185      2188      2191      2187      2185      2188      2189
      2187      2185      2188      2190      2187      2185      2188      2191
      2188      2191      2194      2195      2188      2191      2194      2196
      2188      2191      2194      2197      2189      2188      2191      2192
      2189      2188      2191      2193      2189      2188      2191      2194
      2190      2188      2191      2192      2190      2188      2191      2193
      2190      2188      2191      2194      2191      2194      2197      2198
      2191      2194      2197      2199      2191      2194      2197      2200
      2192      2191      2194      2195      2192      2191      2194      2196
      2192      2191      2194      2197      2193      2191      2194      2195
      2193      2191      2194      2196      2193      2191      2194      2197
      2194      2197      2200      2201      2194      2197      2200      2202
      2194      2197      2200      2203      2195      2194      2197      2198
      2195      2194      2197      2199      2195      2194      2197      2200
      2196      2194      2197      2198      2196      2194      2197      2199
      2196      2194      2197      2200      2197      2200      2203      2204
      2197      2200      2203      2205      2197      2200      2203      2206
      2198      2197      2200      2201      2198      2197      2200      2202
      2198      2197      2200      2203      2199      2197      2200      2201
      2199      2197      2200      2202      2199      2197      2200      2203
      2200      2203      2206      2207      2200      2203      2206      2208
      2200      2203      2206      2209      2201      2200      2203      2204
      2201      2200      2203      2205      2201      2200      2203      2206
      2202      2200      2203      2204      2202      2200      2203      2205
      2202      2200      2203      2206      2203      2206      2209      2210
      2203      2206      2209      2211      2203      2206      2209      2212
      2204      2203      2206      2207      2204      2203      2206      2208
      2204      2203      2206      2209      2205      2203      2206      2207
      2205      2203      2206      2208      2205      2203      2206      2209
      2207      2206      2209      2210      2207      2206      2209      2211
      2207      2206      2209      2212      2208      2206      2209      2210
      2208      2206      2209      2211      2208      2206      2209      2212
      2213      2214      2229      2230      2213      2214      2229      2231
      2213      2214      2229      2235      2214      2213      2217      2218
      2214      2213      2217      2219      2214      2213      2217      2220
      2214      2213      2221      2222      2214      2213      2221      2223
      2214      2213      2221      2224      2214      2213      2225      2226
      2214      2213      2225      2227      2214      2213      2225      2228
      2214      2229      2235      2232      2215      2214      2213      2217
      2215      2214      2213      2221      2215      2214      2213      2225
      2215      2214      2229      2230      2215      2214      2229      2231
      2215      2214      2229      2235      2216      2214      2213      2217
      2216      2214      2213      2221      2216      2214      2213      2225
      2216      2214      2229      2230      2216      2214      2229      2231
      2216      2214      2229      2235      2217      2213      2214      2229
      2217      2213      2221      2222      2217      2213      2221      2223
      2217      2213      2221      2224      2217      2213      2225      2226
      2217      2213      2225      2227      2217      2213      2225      2228
      2218      2217      2213      2221      2218      2217      2213      2225
      2219      2217      2213      2221      2219      2217      2213      2225
      2220      2217      2213      2221      2220      2217      2213      2225
      2221      2213      2214      2229      2221      2213      2225      2226
      2221      2213      2225      2227      2221      2213      2225      2228
      2222      2221      2213      2225      2223      2221      2213      2225
      2224      2221      2213      2225      2225      2213      2214      2229
      2229      2235      2232      2233      2229      2235      2232      2234
      2229      2235      2232      2236      2230      2229      2235      2232
      2231      2229      2235      2232      2232      2236      2237      2238
      2232      2236      2237      2239      2232      2236      2237      2240
      2233      2232      2236      2237      2234      2232      2236      2237
      2235      2232      2236      2237      2236      2237      2240      2241
      2236      2237      2240      2242      2236      2237      2240      2248
      2237      2240      2242      2243      2237      2240      2248      2249
      2237      2240      2248      2250      2237      2240      2248      2251
      2238      2237      2240      2241      2238      2237      2240      2242
      2238      2237      2240      2248      2239      2237      2240      2241
      2239      2237      2240      2242      2239      2237      2240      2248
      2240      2242      2243      2244      2240      2242      2243      2245
      2240      2248      2251      2252      2241      2240      2242      2243
      2241      2240      2248      2249      2241      2240      2248      2250
      2241      2240      2248      2251      2242      2240      2248      2249
      2242      2240      2248      2250      2242      2240      2248      2251
      2242      2243      2245      2246      2242      2243      2245      2247
      2242      2243      2245      2257      2243      2242      2240      2248
      2243      2245      2257      2258      2243      2245      2257      2259
      2243      2245      2257      2260      2244      2243      2245      2246
      2244      2243      2245      2247      2244      2243      2245      2257
      2245      2257      2260      2261      2245      2257      2260      2262
      2245      2257      2260      2263      2246      2245      2257      2258
      2246      2245      2257      2259      2246      2245      2257      2260
      2247      2245      2257      2258      2247      2245      2257      2259
      2247      2245      2257      2260      2248      2251      2252      2253
      2248      2251      2252      2254      2249      2248      2251      2252
      2250      2248      2251      2252      2251      2252      2254      2255
      2251      2252      2254      2256      2251      2252      2254      2304
      2252      2254      2304      2305      2252      2254      2304      2306
      2252      2254      2304      2307      2253      2252      2254      2255
      2253      2252      2254      2256      2253      2252      2254      2304
      2254      2304      2307      2308      2254      2304      2307      2309
      2254      2304      2307      2310      2255      2254      2304      2305
      2255      2254      2304      2306      2255      2254      2304      2307
      2256      2254      2304      2305      2256      2254      2304      2306
      2256      2254      2304      2307      2257      2260      2263      2264
      2257      2260      2263      2265      2257      2260      2263      2266
      2258      2257      2260      2261      2258      2257      2260      2262
      2258      2257      2260      2263      2259      2257      2260      2261
      2259      2257      2260      2262      2259      2257      2260      2263
      2260      2263      2266      2267      2260      2263      2266      2268
      2260      2263      2266      2269      2261      2260      2263      2264
      2261      2260      2263      2265      2261      2260      2263      2266
      2262      2260      2263      2264      2262      2260      2263      2265
      2262      2260      2263      2266      2263      2266      2269      2270
      2263      2266      2269      2271      2263      2266      2269      2272
      2264      2263      2266      2267      2264      2263      2266      2268
      2264      2263      2266      2269      2265      2263      2266      2267
      2265      2263      2266      2268      2265      2263      2266      2269
      2266      2269      2272      2273      2266      2269      2272      2274
      2266      2269      2272      2275      2267      2266      2269      2270
      2267      2266      2269      2271      2267      2266      2269      2272
      2268      2266      2269      2270      2268      2266      2269      2271
      2268      2266      2269      2272      2269      2272      2275      2276
      2269      2272      2275      2277      2270      2269      2272      2273
      2270      2269      2272      2274      2270      2269      2272      2275
      2271      2269      2272      2273      2271      2269      2272      2274
      2271      2269      2272      2275      2272      2275      2277      2278
      2272      2275      2277      2279      2273      2272      2275      2276
      2273      2272      2275      2277      2274      2272      2275      2276
      2274      2272      2275      2277      2275      2277      2279      2280
      2275      2277      2279      2281      2275      2277      2279      2282
      2276      2275      2277      2278      2276      2275      2277      2279
      2277      2279      2282      2283      2277      2279      2282      2284
      2277      2279      2282      2285      2278      2277      2279      2280
      2278      2277      2279      2281      2278      2277      2279      2282
      2279      2282      2285      2286      2279      2282      2285      2287
      2279      2282      2285      2288      2280      2279      2282      2283
      2280      2279      2282      2284      2280      2279      2282      2285
      2281      2279      2282      2283      2281      2279      2282      2284
      2281      2279      2282      2285      2282      2285      2288      2289
      2282      2285      2288      2290      2282      2285      2288      2291
      2283      2282      2285      2286      2283      2282      2285      2287
      2283      2282      2285      2288      2284      2282      2285      2286
      2284      2282      2285      2287      2284      2282      2285      2288
      2285      2288      2291      2292      2285      2288      2291      2293
      2285      2288      2291      2294      2286      2285      2288      2289
      2286      2285      2288      2290      2286      2285      2288      2291
      2287      2285      2288      2289      2287      2285      2288      2290
      2287      2285      2288      2291      2288      2291      2294      2295
      2288      2291      2294      2296      2288      2291      2294      2297
      2289      2288      2291      2292      2289      2288      2291      2293
      2289      2288      2291      2294      2290      2288      2291      2292
      2290      2288      2291      2293      2290      2288      2291      2294
      2291      2294      2297      2298      2291      2294      2297      2299
      2291      2294      2297      2300      2292      2291      2294      2295
      2292      2291      2294      2296      2292      2291      2294      2297
      2293      2291      2294      2295      2293      2291      2294      2296
      2293      2291      2294      2297      2294      2297      2300      2301
      2294      2297      2300      2302      2294      2297      2300      2303
      2295      2294      2297      2298      2295      2294      2297      2299
      2295      2294      2297      2300      2296      2294      2297      2298
      2296      2294      2297      2299      2296      2294      2297      2300
      2298      2297      2300      2301      2298      2297      2300      2302
      2298      2297      2300      2303      2299      2297      2300      2301
      2299      2297      2300      2302      2299      2297      2300      2303
      2304      2307      2310      2311      2304      2307      2310      2312
      2304      2307      2310      2313      2305      2304      2307      2308
      2305      2304      2307      2309      2305      2304      2307      2310
      2306      2304      2307      2308      2306      2304      2307      2309
      2306      2304      2307      2310      2307      2310      2313      2314
      2307      2310      2313      2315      2307      2310      2313      2316
      2308      2307      2310      2311      2308      2307      2310      2312
      2308      2307      2310      2313      2309      2307      2310      2311
      2309      2307      2310      2312      2309      2307      2310      2313
      2310      2313      2316      2317      2310      2313      2316      2318
      2310      2313      2316      2319      2311      2310      2313      2314
      2311      2310      2313      2315      2311      2310      2313      2316
      2312      2310      2313      2314      2312      2310      2313      2315
      2312      2310      2313      2316      2313      2316      2319      2320
      2313      2316      2319      2321      2313      2316      2319      2322
      2314      2313      2316      2317      2314      2313      2316      2318
      2314      2313      2316      2319      2315      2313      2316      2317
      2315      2313      2316      2318      2315      2313      2316      2319
      2316      2319      2322      2323      2316      2319      2322      2324
      2316      2319      2322      2325      2317      2316      2319      2320
      2317      2316      2319      2321      2317      2316      2319      2322
      2318      2316      2319      2320      2318      2316      2319      2321
      2318      2316      2319      2322      2319      2322      2325      2326
      2319      2322      2325      2327      2319      2322      2325      2328
      2320      2319      2322      2323      2320      2319      2322      2324
      2320      2319      2322      2325      2321      2319      2322      2323
      2321      2319      2322      2324      2321      2319      2322      2325
      2322      2325      2328      2329      2322      2325      2328      2330
      2322      2325      2328      2331      2323      2322      2325      2326
      2323      2322      2325      2327      2323      2322      2325      2328
      2324      2322      2325      2326      2324      2322      2325      2327
      2324      2322      2325      2328      2325      2328      2331      2332
      2325      2328      2331      2333      2325      2328      2331      2334
      2326      2325      2328      2329      2326      2325      2328      2330
      2326      2325      2328      2331      2327      2325      2328      2329
      2327      2325      2328      2330      2327      2325      2328      2331
      2328      2331      2334      2335      2328      2331      2334      2336
      2328      2331      2334      2337      2329      2328      2331      2332
      2329      2328      2331      2333      2329      2328      2331      2334
      2330      2328      2331      2332      2330      2328      2331      2333
      2330      2328      2331      2334      2331      2334      2337      2338
      2331      2334      2337      2339      2331      2334      2337      2340
      2332      2331      2334      2335      2332      2331      2334      2336
      2332      2331      2334      2337      2333      2331      2334      2335
      2333      2331      2334      2336      2333      2331      2334      2337
      2334      2337      2340      2341      2334      2337      2340      2342
      2334      2337      2340      2343      2335      2334      2337      2338
      2335      2334      2337      2339      2335      2334      2337      2340
      2336      2334      2337      2338      2336      2334      2337      2339
      2336      2334      2337      2340      2337      2340      2343      2344
      2337      2340      2343      2345      2337      2340      2343      2346
      2338      2337      2340      2341      2338      2337      2340      2342
      2338      2337      2340      2343      2339      2337      2340      2341
      2339      2337      2340      2342      2339      2337      2340      2343
      2341      2340      2343      2344      2341      2340      2343      2345
      2341      2340      2343      2346      2342      2340      2343      2344
      2342      2340      2343      2345      2342      2340      2343      2346
      2347      2348      2363      2364      2347      2348      2363      2365
      2347      2348      2363      2369      2348      2347      2351      2352
      2348      2347      2351      2353      2348      2347      2351      2354
      2348      2347      2355      2356      2348      2347      2355      2357
      2348      2347      2355      2358      2348      2347      2359      2360
      2348      2347      2359      2361      2348      2347      2359      2362
      2348      2363      2369      2366      2349      2348      2347      2351
      2349      2348      2347      2355      2349      2348      2347      2359
      2349      2348      2363      2364      2349      2348      2363      2365
      2349      2348      2363      2369      2350      2348      2347      2351
      2350      2348      2347      2355      2350      2348      2347      2359
      2350      2348      2363      2364      2350      2348      2363      2365
      2350      2348      2363      2369      2351      2347      2348      2363
      2351      2347      2355      2356      2351      2347      2355      2357
      2351      2347      2355      2358      2351      2347      2359      2360
      2351      2347      2359      2361      2351      2347      2359      2362
      2352      2351      2347      2355      2352      2351      2347      2359
      2353      2351      2347      2355      2353      2351      2347      2359
      2354      2351      2347      2355      2354      2351      2347      2359
      2355      2347      2348      2363      2355      2347      2359      2360
      2355      2347      2359      2361      2355      2347      2359      2362
      2356      2355      2347      2359      2357      2355      2347      2359
      2358      2355      2347      2359      2359      2347      2348      2363
      2363      2369      2366      2367      2363      2369      2366      2368
      2363      2369      2366      2370      2364      2363      2369      2366
      2365      2363      2369      2366      2366      2370      2371      2372
      2366      2370      2371      2373      2366      2370      2371      2374
      2367      2366      2370      2371      2368      2366      2370      2371
      2369      2366      2370      2371      2370      2371      2374      2375
      2370      2371      2374      2376      2370      2371      2374      2382
      2371      2374      2376      2377      2371      2374      2382      2383
      2371      2374      2382      2384      2371      2374      2382      2385
      2372      2371      2374      2375      2372      2371      2374      2376
      2372      2371      2374      2382      2373      2371      2374      2375
      2373      2371      2374      2376      2373      2371      2374      2382
      2374      2376      2377      2378      2374      2376      2377      2379
      2374      2382      2385      2386      2375      2374      2376      2377
      2375      2374      2382      2383      2375      2374      2382      2384
      2375      2374      2382      2385      2376      2374      2382      2383
      2376      2374      2382      2384      2376      2374      2382      2385
      2376      2377      2379      2380      2376      2377      2379      2381
      2376      2377      2379      2391      2377      2376      2374      2382
      2377      2379      2391      2392      2377      2379      2391      2393
      2377      2379      2391      2394      2378      2377      2379      2380
      2378      2377      2379      2381      2378      2377      2379      2391
      2379      2391      2394      2395      2379      2391      2394      2396
      2379      2391      2394      2397      2380      2379      2391      2392
      2380      2379      2391      2393      2380      2379      2391      2394
      2381      2379      2391      2392      2381      2379      2391      2393
      2381      2379      2391      2394      2382      2385      2386      2387
      2382      2385      2386      2388      2383      2382      2385      2386
      2384      2382      2385      2386      2385      2386      2388      2389
      2385      2386      2388      2390      2385      2386      2388      2438
      2386      2388      2438      2439      2386      2388      2438      2440
      2386      2388      2438      2441      2387      2386      2388      2389
      2387      2386      2388      2390      2387      2386      2388      2438
      2388      2438      2441      2442      2388      2438      2441      2443
      2388      2438      2441      2444      2389      2388      2438      2439
      2389      2388      2438      2440      2389      2388      2438      2441
      2390      2388      2438      2439      2390      2388      2438      2440
      2390      2388      2438      2441      2391      2394      2397      2398
      2391      2394      2397      2399      2391      2394      2397      2400
      2392      2391      2394      2395      2392      2391      2394      2396
      2392      2391      2394      2397      2393      2391      2394      2395
      2393      2391      2394      2396      2393      2391      2394      2397
      2394      2397      2400      2401      2394      2397      2400      2402
      2394      2397      2400      2403      2395      2394      2397      2398
      2395      2394      2397      2399      2395      2394      2397      2400
      2396      2394      2397      2398      2396      2394      2397      2399
      2396      2394      2397      2400      2397      2400      2403      2404
      2397      2400      2403      2405      2397      2400      2403      2406
      2398      2397      2400      2401      2398      2397      2400      2402
      2398      2397      2400      2403      2399      2397      2400      2401
      2399      2397      2400      2402      2399      2397      2400      2403
      2400      2403      2406      2407      2400      2403      2406      2408
      2400      2403      2406      2409      2401      2400      2403      2404
      2401      2400      2403      2405      2401      2400      2403      2406
      2402      2400      2403      2404      2402      2400      2403      2405
      2402      2400      2403      2406      2403      2406      2409      2410
      2403      2406      2409      2411      2404      2403      2406      2407
      2404      2403      2406      2408      2404      2403      2406      2409
      2405      2403      2406      2407      2405      2403      2406      2408
      2405      2403      2406      2409      2406      2409      2411      2412
      2406      2409      2411      2413      2407      2406      2409      2410
      2407      2406      2409      2411      2408      2406      2409      2410
      2408      2406      2409      2411      2409      2411      2413      2414
      2409      2411      2413      2415      2409      2411      2413      2416
      2410      2409      2411      2412      2410      2409      2411      2413
      2411      2413      2416      2417      2411      2413      2416      2418
      2411      2413      2416      2419      2412      2411      2413      2414
      2412      2411      2413      2415      2412      2411      2413      2416
      2413      2416      2419      2420      2413      2416      2419      2421
      2413      2416      2419      2422      2414      2413      2416      2417
      2414      2413      2416      2418      2414      2413      2416      2419
      2415      2413      2416      2417      2415      2413      2416      2418
      2415      2413      2416      2419      2416      2419      2422      2423
      2416      2419      2422      2424      2416      2419      2422      2425
      2417      2416      2419      2420      2417      2416      2419      2421
      2417      2416      2419      2422      2418      2416      2419      2420
      2418      2416      2419      2421      2418      2416      2419      2422
      2419      2422      2425      2426      2419      2422      2425      2427
      2419      2422      2425      2428      2420      2419      2422      2423
      2420      2419      2422      2424      2420      2419      2422      2425
      2421      2419      2422      2423      2421      2419      2422      2424
      2421      2419      2422      2425      2422      2425      2428      2429
      2422      2425      2428      2430      2422      2425      2428      2431
      2423      2422      2425      2426      2423      2422      2425      2427
      2423      2422      2425      2428      2424      2422      2425      2426
      2424      2422      2425      2427      2424      2422      2425      2428
      2425      2428      2431      2432      2425      2428      2431      2433
      2425      2428      2431      2434      2426      2425      2428      2429
      2426      2425      2428      2430      2426      2425      2428      2431
      2427      2425      2428      2429      2427      2425      2428      2430
      2427      2425      2428      2431      2428      2431      2434      2435
      2428      2431      2434      2436      2428      2431      2434      2437
      2429      2428      2431      2432      2429      2428      2431      2433
      2429      2428      2431      2434      2430      2428      2431      2432
      2430      2428      2431      2433      2430      2428      2431      2434
      2432      2431      2434      2435      2432      2431      2434      2436
      2432      2431      2434      2437      2433      2431      2434      2435
      2433      2431      2434      2436      2433      2431      2434      2437
      2438      2441      2444      2445      2438      2441      2444      2446
      2438      2441      2444      2447      2439      2438      2441      2442
      2439      2438      2441      2443      2439      2438      2441      2444
      2440      2438      2441      2442      2440      2438      2441      2443
      2440      2438      2441      2444      2441      2444      2447      2448
      2441      2444      2447      2449      2441      2444      2447      2450
      2442      2441      2444      2445      2442      2441      2444      2446
      2442      2441      2444      2447      2443      2441      2444      2445
      2443      2441      2444      2446      2443      2441      2444      2447
      2444      2447      2450      2451      2444      2447      2450      2452
      2444      2447      2450      2453      2445      2444      2447      2448
      2445      2444      2447      2449      2445      2444      2447      2450
      2446      2444      2447      2448      2446      2444      2447      2449
      2446      2444      2447      2450      2447      2450      2453      2454
      2447      2450      2453      2455      2447      2450      2453      2456
      2448      2447      2450      2451      2448      2447      2450      2452
      2448      2447      2450      2453      2449      2447      2450      2451
      2449      2447      2450      2452      2449      2447      2450      2453
      2450      2453      2456      2457      2450      2453      2456      2458
      2450      2453      2456      2459      2451      2450      2453      2454
      2451      2450      2453      2455      2451      2450      2453      2456
      2452      2450      2453      2454      2452      2450      2453      2455
      2452      2450      2453      2456      2453      2456      2459      2460
      2453      2456      2459      2461      2453      2456      2459      2462
      2454      2453      2456      2457      2454      2453      2456      2458
      2454      2453      2456      2459      2455      2453      2456      2457
      2455      2453      2456      2458      2455      2453      2456      2459
      2456      2459      2462      2463      2456      2459      2462      2464
      2456      2459      2462      2465      2457      2456      2459      2460
      2457      2456      2459      2461      2457      2456      2459      2462
      2458      2456      2459      2460      2458      2456      2459      2461
      2458      2456      2459      2462      2459      2462      2465      2466
      2459      2462      2465      2467      2459      2462      2465      2468
      2460      2459      2462      2463      2460      2459      2462      2464
      2460      2459      2462      2465      2461      2459      2462      2463
      2461      2459      2462      2464      2461      2459      2462      2465
      2462      2465      2468      2469      2462      2465      2468      2470
      2462      2465      2468      2471      2463      2462      2465      2466
      2463      2462      2465      2467      2463      2462      2465      2468
      2464      2462      2465      2466      2464      2462      2465      2467
      2464      2462      2465      2468      2465      2468      2471      2472
      2465      2468      2471      2473      2465      2468      2471      2474
      2466      2465      2468      2469      2466      2465      2468      2470
      2466      2465      2468      2471      2467      2465      2468      2469
      2467      2465      2468      2470      2467      2465      2468      2471
      2468      2471      2474      2475      2468      2471      2474      2476
      2468      2471      2474      2477      2469      2468      2471      2472
      2469      2468      2471      2473      2469      2468      2471      2474
      2470      2468      2471      2472      2470      2468      2471      2473
      2470      2468      2471      2474      2471      2474      2477      2478
      2471      2474      2477      2479      2471      2474      2477      2480
      2472      2471      2474      2475      2472      2471      2474      2476
      2472      2471      2474      2477      2473      2471      2474      2475
      2473      2471      2474      2476      2473      2471      2474      2477
      2475      2474      2477      2478      2475      2474      2477      2479
      2475      2474      2477      2480      2476      2474      2477      2478
      2476      2474      2477      2479      2476      2474      2477      2480
      2481      2482      2497      2498      2481      2482      2497      2499
      2481      2482      2497      2503      2482      2481      2485      2486
      2482      2481      2485      2487      2482      2481      2485      2488
      2482      2481      2489      2490      2482      2481      2489      2491
      2482      2481      2489      2492      2482      2481      2493      2494
      2482      2481      2493      2495      2482      2481      2493      2496
      2482      2497      2503      2500      2483      2482      2481      2485
      2483      2482      2481      2489      2483      2482      2481      2493
      2483      2482      2497      2498      2483      2482      2497      2499
      2483      2482      2497      2503      2484      2482      2481      2485
      2484      2482      2481      2489      2484      2482      2481      2493
      2484      2482      2497      2498      2484      2482      2497      2499
      2484      2482      2497      2503      2485      2481      2482      2497
      2485      2481      2489      2490      2485      2481      2489      2491
      2485      2481      2489      2492      2485      2481      2493      2494
      2485      2481      2493      2495      2485      2481      2493      2496
      2486      2485      2481      2489      2486      2485      2481      2493
      2487      2485      2481      2489      2487      2485      2481      2493
      2488      2485      2481      2489      2488      2485      2481      2493
      2489      2481      2482      2497      2489      2481      2493      2494
      2489      2481      2493      2495      2489      2481      2493      2496
      2490      2489      2481      2493      2491      2489      2481      2493
      2492      2489      2481      2493      2493      2481      2482      2497
      2497      2503      2500      2501      2497      2503      2500      2502
      2497      2503      2500      2504      2498      2497      2503      2500
      2499      2497      2503      2500      2500      2504      2505      2506
      2500      2504      2505      2507      2500      2504      2505      2508
      2501      2500      2504      2505      2502      2500      2504      2505
      2503      2500      2504      2505      2504      2505      2508      2509
      2504      2505      2508      2510      2504      2505      2508      2516
      2505      2508      2510      2511      2505      2508      2516      2517
      2505      2508      2516      2518      2505      2508      2516      2519
      2506      2505      2508      2509      2506      2505      2508      2510
      2506      2505      2508      2516      2507      2505      2508      2509
      2507      2505      2508      2510      2507      2505      2508      2516
      2508      2510      2511      2512      2508      2510      2511      2513
      2508      2516      2519      2520      2509      2508      2510      2511
      2509      2508      2516      2517      2509      2508      2516      2518
      2509      2508      2516      2519      2510      2508      2516      2517
      2510      2508      2516      2518      2510      2508      2516      2519
      2510      2511      2513      2514      2510      2511      2513      2515
      2510      2511      2513      2525      2511      2510      2508      2516
      2511      2513      2525      2526      2511      2513      2525      2527
      2511      2513      2525      2528      2512      2511      2513      2514
      2512      2511      2513      2515      2512      2511      2513      2525
      2513      2525      2528      2529      2513      2525      2528      2530
      2513      2525      2528      2531      2514      2513      2525      2526
      2514      2513      2525      2527      2514      2513      2525      2528
      2515      2513      2525      2526      2515      2513      2525      2527
      2515      2513      2525      2528      2516      2519      2520      2521
      2516      2519      2520      2522      2517      2516      2519      2520
      2518      2516      2519      2520      2519      2520      2522      2523
      2519      2520      2522      2524      2519      2520      2522      2572
      2520      2522      2572      2573      2520      2522      2572      2574
      2520      2522      2572      2575      2521      2520      2522      2523
      2521      2520      2522      2524      2521      2520      2522      2572
      2522      2572      2575      2576      2522      2572      2575      2577
      2522      2572      2575      2578      2523      2522      2572      2573
      2523      2522      2572      2574      2523      2522      2572      2575
      2524      2522      2572      2573      2524      2522      2572      2574
      2524      2522      2572      2575      2525      2528      2531      2532
      2525      2528      2531      2533      2525      2528      2531      2534
      2526      2525      2528      2529      2526      2525      2528      2530
      2526      2525      2528      2531      2527      2525      2528      2529
      2527      2525      2528      2530      2527      2525      2528      2531
      2528      2531      2534      2535      2528      2531      2534      2536
      2528      2531      2534      2537      2529      2528      2531      2532
      2529      2528      2531      2533      2529      2528      2531      2534
      2530      2528      2531      2532      2530      2528      2531      2533
      2530      2528      2531      2534      2531      2534      2537      2538
      2531      2534      2537      2539      2531      2534      2537      2540
      2532      2531      2534      2535      2532      2531      2534      2536
      2532      2531      2534      2537      2533      2531      2534      2535
      2533      2531      2534      2536      2533      2531      2534      2537
      2534      2537      2540      2541      2534      2537      2540      2542
      2534      2537      2540      2543      2535      2534      2537      2538
      2535      2534      2537      2539      2535      2534      2537      2540
      2536      2534      2537      2538      2536      2534      2537      2539
      2536      2534      2537      2540      2537      2540      2543      2544
      2537      2540      2543      2545      2538      2537      2540      2541
      2538      2537      2540      2542      2538      2537      2540      2543
      2539      2537      2540      2541      2539      2537      2540      2542
      2539      2537      2540      2543      2540      2543      2545      2546
      2540      2543      2545      2547      2541      2540      2543      2544
      2541      2540      2543      2545      2542      2540      2543      2544
      2542      2540      2543      2545      2543      2545      2547      2548
      2543      2545      2547      2549      2543      2545      2547      2550
      2544      2543      2545      2546      2544      2543      2545      2547
      2545      2547      2550      2551      2545      2547      2550      2552
      2545      2547      2550      2553      2546      2545      2547      2548
      2546      2545      2547      2549      2546      2545      2547      2550
      2547      2550      2553      2554      2547      2550      2553      2555
      2547      2550      2553      2556      2548      2547      2550      2551
      2548      2547      2550      2552      2548      2547      2550      2553
      2549      2547      2550      2551      2549      2547      2550      2552
      2549      2547      2550      2553      2550      2553      2556      2557
      2550      2553      2556      2558      2550      2553      2556      2559
      2551      2550      2553      2554      2551      2550      2553      2555
      2551      2550      2553      2556      2552      2550      2553      2554
      2552      2550      2553      2555      2552      2550      2553      2556
      2553      2556      2559      2560      2553      2556      2559      2561
      2553      2556      2559      2562      2554      2553      2556      2557
      2554      2553      2556      2558      2554      2553      2556      2559
      2555      2553      2556      2557      2555      2553      2556      2558
      2555      2553      2556      2559      2556      2559      2562      2563
      2556      2559      2562      2564      2556      2559      2562      2565
      2557      2556      2559      2560      2557      2556      2559      2561
      2557      2556      2559      2562      2558      2556      2559      2560
      2558      2556      2559      2561      2558      2556      2559      2562
      2559      2562      2565      2566      2559      2562      2565      2567
      2559      2562      2565      2568      2560      2559      2562      2563
      2560      2559      2562      2564      2560      2559      2562      2565
      2561      2559      2562      2563      2561      2559      2562      2564
      2561      2559      2562      2565      2562      2565      2568      2569
      2562      2565      2568      2570      2562      2565      2568      2571
      2563      2562      2565      2566      2563      2562      2565      2567
      2563      2562      2565      2568      2564      2562      2565      2566
      2564      2562      2565      2567      2564      2562      2565      2568
      2566      2565      2568      2569      2566      2565      2568      2570
      2566      2565      2568      2571      2567      2565      2568      2569
      2567      2565      2568      2570      2567      2565      2568      2571
      2572      2575      2578      2579      2572      2575      2578      2580
      2572      2575      2578      2581      2573      2572      2575      2576
      2573      2572      2575      2577      2573      2572      2575      2578
      2574      2572      2575      2576      2574      2572      2575      2577
      2574      2572      2575      2578      2575      2578      2581      2582
      2575      2578      2581      2583      2575      2578      2581      2584
      2576      2575      2578      2579      2576      2575      2578      2580
      2576      2575      2578      2581      2577      2575      2578      2579
      2577      2575      2578      2580      2577      2575      2578      2581
      2578      2581      2584      2585      2578      2581      2584      2586
      2578      2581      2584      2587      2579      2578      2581      2582
      2579      2578      2581      2583      2579      2578      2581      2584
      2580      2578      2581      2582      2580      2578      2581      2583
      2580      2578      2581      2584      2581      2584      2587      2588
      2581      2584      2587      2589      2581      2584      2587      2590
      2582      2581      2584      2585      2582      2581      2584      2586
      2582      2581      2584      2587      2583      2581      2584      2585
      2583      2581      2584      2586      2583      2581      2584      2587
      2584      2587      2590      2591      2584      2587      2590      2592
      2584      2587      2590      2593      2585      2584      2587      2588
      2585      2584      2587      2589      2585      2584      2587      2590
      2586      2584      2587      2588      2586      2584      2587      2589
      2586      2584      2587      2590      2587      2590      2593      2594
      2587      2590      2593      2595      2587      2590      2593      2596
      2588      2587      2590      2591      2588      2587      2590      2592
      2588      2587      2590      2593      2589      2587      2590      2591
      2589      2587      2590      2592      2589      2587      2590      2593
      2590      2593      2596      2597      2590      2593      2596      2598
      2590      2593      2596      2599      2591      2590      2593      2594
      2591      2590      2593      2595      2591      2590      2593      2596
      2592      2590      2593      2594      2592      2590      2593      2595
      2592      2590      2593      2596      2593      2596      2599      2600
      2593      2596      2599      2601      2593      2596      2599      2602
      2594      2593      2596      2597      2594      2593      2596      2598
      2594      2593      2596      2599      2595      2593      2596      2597
      2595      2593      2596      2598      2595      2593      2596      2599
      2596      2599      2602      2603      2596      2599      2602      2604
      2596      2599      2602      2605      2597      2596      2599      2600
      2597      2596      2599      2601      2597      2596      2599      2602
      2598      2596      2599      2600      2598      2596      2599      2601
      2598      2596      2599      2602      2599      2602      2605      2606
      2599      2602      2605      2607      2599      2602      2605      2608
      2600      2599      2602      2603      2600      2599      2602      2604
      2600      2599      2602      2605      2601      2599      2602      2603
      2601      2599      2602      2604      2601      2599      2602      2605
      2602      2605      2608      2609      2602      2605      2608      2610
      2602      2605      2608      2611      2603      2602      2605      2606
      2603      2602      2605      2607      2603      2602      2605      2608
      2604      2602      2605      2606      2604      2602      2605      2607
      2604      2602      2605      2608      2605      2608      2611      2612
      2605      2608      2611      2613      2605      2608      2611      2614
      2606      2605      2608      2609      2606      2605      2608      2610
      2606      2605      2608      2611      2607      2605      2608      2609
      2607      2605      2608      2610      2607      2605      2608      2611
      2609      2608      2611      2612      2609      2608      2611      2613
      2609      2608      2611      2614      2610      2608      2611      2612
      2610      2608      2611      2613      2610      2608      2611      2614
      2615      2616      2631      2632      2615      2616      2631      2633
      2615      2616      2631      2637      2616      2615      2619      2620
      2616      2615      2619      2621      2616      2615      2619      2622
      2616      2615      2623      2624      2616      2615      2623      2625
      2616      2615      2623      2626      2616      2615      2627      2628
      2616      2615      2627      2629      2616      2615      2627      2630
      2616      2631      2637      2634      2617      2616      2615      2619
      2617      2616      2615      2623      2617      2616      2615      2627
      2617      2616      2631      2632      2617      2616      2631      2633
      2617      2616      2631      2637      2618      2616      2615      2619
      2618      2616      2615      2623      2618      2616      2615      2627
      2618      2616      2631      2632      2618      2616      2631      2633
      2618      2616      2631      2637      2619      2615      2616      2631
      2619      2615      2623      2624      2619      2615      2623      2625
      2619      2615      2623      2626      2619      2615      2627      2628
      2619      2615      2627      2629      2619      2615      2627      2630
      2620      2619      2615      2623      2620      2619      2615      2627
      2621      2619      2615      2623      2621      2619      2615      2627
      2622      2619      2615      2623      2622      2619      2615      2627
      2623      2615      2616      2631      2623      2615      2627      2628
      2623      2615      2627      2629      2623      2615      2627      2630
      2624      2623      2615      2627      2625      2623      2615      2627
      2626      2623      2615      2627      2627      2615      2616      2631
      2631      2637      2634      2635      2631      2637      2634      2636
      2631      2637      2634      2638      2632      2631      2637      2634
      2633      2631      2637      2634      2634      2638      2639      2640
      2634      2638      2639      2641      2634      2638      2639      2642
      2635      2634      2638      2639      2636      2634      2638      2639
      2637      2634      2638      2639      2638      2639      2642      2643
      2638      2639      2642      2644      2638      2639      2642      2650
      2639      2642      2644      2645      2639      2642      2650      2651
      2639      2642      2650      2652      2639      2642      2650      2653
      2640      2639      2642      2643      2640      2639      2642      2644
      2640      2639      2642      2650      2641      2639      2642      2643
      2641      2639      2642      2644      2641      2639      2642      2650
      2642      2644      2645      2646      2642      2644      2645      2647
      2642      2650      2653      2654      2643      2642      2644      2645
      2643      2642      2650      2651      2643      2642      2650      2652
      2643      2642      2650      2653      2644      2642      2650      2651
      2644      2642      2650      2652      2644      2642      2650      2653
      2644      2645      2647      2648      2644      2645      2647      2649
      2644      2645      2647      2659      2645      2644      2642      2650
      2645      2647      2659      2660      2645      2647      2659      2661
      2645      2647      2659      2662      2646      2645      2647      2648
      2646      2645      2647      2649      2646      2645      2647      2659
      2647      2659      2662      2663      2647      2659      2662      2664
      2647      2659      2662      2665      2648      2647      2659      2660
      2648      2647      2659      2661      2648      2647      2659      2662
      2649      2647      2659      2660      2649      2647      2659      2661
      2649      2647      2659      2662      2650      2653      2654      2655
      2650      2653      2654      2656      2651      2650      2653      2654
      2652      2650      2653      2654      2653      2654      2656      2657
      2653      2654      2656      2658      2653      2654      2656      2706
      2654      2656      2706      2707      2654      2656      2706      2708
      2654      2656      2706      2709      2655      2654      2656      2657
      2655      2654      2656      2658      2655      2654      2656      2706
      2656      2706      2709      2710      2656      2706      2709      2711
      2656      2706      2709      2712      2657      2656      2706      2707
      2657      2656      2706      2708      2657      2656      2706      2709
      2658      2656      2706      2707      2658      2656      2706      2708
      2658      2656      2706      2709      2659      2662      2665      2666
      2659      2662      2665      2667      2659      2662      2665      2668
      2660      2659      2662      2663      2660      2659      2662      2664
      2660      2659      2662      2665      2661      2659      2662      2663
      2661      2659      2662      2664      2661      2659      2662      2665
      2662      2665      2668      2669      2662      2665      2668      2670
      2662      2665      2668      2671      2663      2662      2665      2666
      2663      2662      2665      2667      2663      2662      2665      2668
      2664      2662      2665      2666      2664      2662      2665      2667
      2664      2662      2665      2668      2665      2668      2671      2672
      2665      2668      2671      2673      2665      2668      2671      2674
      2666      2665      2668      2669      2666      2665      2668      2670
      2666      2665      2668      2671      2667      2665      2668      2669
      2667      2665      2668      2670      2667      2665      2668      2671
      2668      2671      2674      2675      2668      2671      2674      2676
      2668      2671      2674      2677      2669      2668      2671      2672
      2669      2668      2671      2673      2669      2668      2671      2674
      2670      2668      2671      2672      2670      2668      2671      2673
      2670      2668      2671      2674      2671      2674      2677      2678
      2671      2674      2677      2679      2672      2671      2674      2675
      2672      2671      2674      2676      2672      2671      2674      2677
      2673      2671      2674      2675      2673      2671      2674      2676
      2673      2671      2674      2677      2674      2677      2679      2680
      2674      2677      2679      2681      2675      2674      2677      2678
      2675      2674      2677      2679      2676      2674      2677      2678
      2676      2674      2677      2679      2677      2679      2681      2682
      2677      2679      2681      2683      2677      2679      2681      2684
      2678      2677      2679      2680      2678      2677      2679      2681
      2679      2681      2684      2685      2679      2681      2684      2686
      2679      2681      2684      2687      2680      2679      2681      2682
      2680      2679      2681      2683      2680      2679      2681      2684
      2681      2684      2687      2688      2681      2684      2687      2689
      2681      2684      2687      2690      2682      2681      2684      2685
      2682      2681      2684      2686      2682      2681      2684      2687
      2683      2681      2684      2685      2683      2681      2684      2686
      2683      2681      2684      2687      2684      2687      2690      2691
      2684      2687      2690      2692      2684      2687      2690      2693
      2685      2684      2687      2688      2685      2684      2687      2689
      2685      2684      2687      2690      2686      2684      2687      2688
      2686      2684      2687      2689      2686      2684      2687      2690
      2687      2690      2693      2694      2687      2690      2693      2695
      2687      2690      2693      2696      2688      2687      2690      2691
      2688      2687      2690      2692      2688      2687      2690      2693
      2689      2687      2690      2691      2689      2687      2690      2692
      2689      2687      2690      2693      2690      2693      2696      2697
      2690      2693      2696      2698      2690      2693      2696      2699
      2691      2690      2693      2694      2691      2690      2693      2695
      2691      2690      2693      2696      2692      2690      2693      2694
      2692      2690      2693      2695      2692      2690      2693      2696
      2693      2696      2699      2700      2693      2696      2699      2701
      2693      2696      2699      2702      2694      2693      2696      2697
      2694      2693      2696      2698      2694      2693      2696      2699
      2695      2693      2696      2697      2695      2693      2696      2698
      2695      2693      2696      2699      2696      2699      2702      2703
      2696      2699      2702      2704      2696      2699      2702      2705
      2697      2696      2699      2700      2697      2696      2699      2701
      2697      2696      2699      2702      2698      2696      2699      2700
      2698      2696      2699      2701      2698      2696      2699      2702
      2700      2699      2702      2703      2700      2699      2702      2704
      2700      2699      2702      2705      2701      2699      2702      2703
      2701      2699      2702      2704      2701      2699      2702      2705
      2706      2709      2712      2713      2706      2709      2712      2714
      2706      2709      2712      2715      2707      2706      2709      2710
      2707      2706      2709      2711      2707      2706      2709      2712
      2708      2706      2709      2710      2708      2706      2709      2711
      2708      2706      2709      2712      2709      2712      2715      2716
      2709      2712      2715      2717      2709      2712      2715      2718
      2710      2709      2712      2713      2710      2709      2712      2714
      2710      2709      2712      2715      2711      2709      2712      2713
      2711      2709      2712      2714      2711      2709      2712      2715
      2712      2715      2718      2719      2712      2715      2718      2720
      2712      2715      2718      2721      2713      2712      2715      2716
      2713      2712      2715      2717      2713      2712      2715      2718
      2714      2712      2715      2716      2714      2712      2715      2717
      2714      2712      2715      2718      2715      2718      2721      2722
      2715      2718      2721      2723      2715      2718      2721      2724
      2716      2715      2718      2719      2716      2715      2718      2720
      2716      2715      2718      2721      2717      2715      2718      2719
      2717      2715      2718      2720      2717      2715      2718      2721
      2718      2721      2724      2725      2718      2721      2724      2726
      2718      2721      2724      2727      2719      2718      2721      2722
      2719      2718      2721      2723      2719      2718      2721      2724
      2720      2718      2721      2722      2720      2718      2721      2723
      2720      2718      2721      2724      2721      2724      2727      2728
      2721      2724      2727      2729      2721      2724      2727      2730
      2722      2721      2724      2725      2722      2721      2724      2726
      2722      2721      2724      2727      2723      2721      2724      2725
      2723      2721      2724      2726      2723      2721      2724      2727
      2724      2727      2730      2731      2724      2727      2730      2732
      2724      2727      2730      2733      2725      2724      2727      2728
      2725      2724      2727      2729      2725      2724      2727      2730
      2726      2724      2727      2728      2726      2724      2727      2729
      2726      2724      2727      2730      2727      2730      2733      2734
      2727      2730      2733      2735      2727      2730      2733      2736
      2728      2727      2730      2731      2728      2727      2730      2732
      2728      2727      2730      2733      2729      2727      2730      2731
      2729      2727      2730      2732      2729      2727      2730      2733
      2730      2733      2736      2737      2730      2733      2736      2738
      2730      2733      2736      2739      2731      2730      2733      2734
      2731      2730      2733      2735      2731      2730      2733      2736
      2732      2730      2733      2734      2732      2730      2733      2735
      2732      2730      2733      2736      2733      2736      2739      2740
      2733      2736      2739      2741      2733      2736      2739      2742
      2734      2733      2736      2737      2734      2733      2736      2738
      2734      2733      2736      2739      2735      2733      2736      2737
      2735      2733      2736      2738      2735      2733      2736      2739
      2736      2739      2742      2743      2736      2739      2742      2744
      2736      2739      2742      2745      2737      2736      2739      2740
      2737      2736      2739      2741      2737      2736      2739      2742
      2738      2736      2739      2740      2738      2736      2739      2741
      2738      2736      2739      2742      2739      2742      2745      2746
      2739      2742      2745      2747      2739      2742      2745      2748
      2740      2739      2742      2743      2740      2739      2742      2744
      2740      2739      2742      2745      2741      2739      2742      2743
      2741      2739      2742      2744      2741      2739      2742      2745
      2743      2742      2745      2746      2743      2742      2745      2747
      2743      2742      2745      2748      2744      2742      2745      2746
      2744      2742      2745      2747      2744      2742      2745      2748
      2749      2750      2765      2766      2749      2750      2765      2767
      2749      2750      2765      2771      2750      2749      2753      2754
      2750      2749      2753      2755      2750      2749      2753      2756
      2750      2749      2757      2758      2750      2749      2757      2759
      2750      2749      2757      2760      2750      2749      2761      2762
      2750      2749      2761      2763      2750      2749      2761      2764
      2750      2765      2771      2768      2751      2750      2749      2753
      2751      2750      2749      2757      2751      2750      2749      2761
      2751      2750      2765      2766      2751      2750      2765      2767
      2751      2750      2765      2771      2752      2750      2749      2753
      2752      2750      2749      2757      2752      2750      2749      2761
      2752      2750      2765      2766      2752      2750      2765      2767
      2752      2750      2765      2771      2753      2749      2750      2765
      2753      2749      2757      2758      2753      2749      2757      2759
      2753      2749      2757      2760      2753      2749      2761      2762
      2753      2749      2761      2763      2753      2749      2761      2764
      2754      2753      2749      2757      2754      2753      2749      2761
      2755      2753      2749      2757      2755      2753      2749      2761
      2756      2753      2749      2757      2756      2753      2749      2761
      2757      2749      2750      2765      2757      2749      2761      2762
      2757      2749      2761      2763      2757      2749      2761      2764
      2758      2757      2749      2761      2759      2757      2749      2761
      2760      2757      2749      2761      2761      2749      2750      2765
      2765      2771      2768      2769      2765      2771      2768      2770
      2765      2771      2768      2772      2766      2765      2771      2768
      2767      2765      2771      2768      2768      2772      2773      2774
      2768      2772      2773      2775      2768      2772      2773      2776
      2769      2768      2772      2773      2770      2768      2772      2773
      2771      2768      2772      2773      2772      2773      2776      2777
      2772      2773      2776      2778      2772      2773      2776      2784
      2773      2776      2778      2779      2773      2776      2784      2785
      2773      2776      2784      2786      2773      2776      2784      2787
      2774      2773      2776      2777      2774      2773      2776      2778
      2774      2773      2776      2784      2775      2773      2776      2777
      2775      2773      2776      2778      2775      2773      2776      2784
      2776      2778      2779      2780      2776      2778      2779      2781
      2776      2784      2787      2788      2777      2776      2778      2779
      2777      2776      2784      2785      2777      2776      2784      2786
      2777      2776      2784      2787      2778      2776      2784      2785
      2778      2776      2784      2786      2778      2776      2784      2787
      2778      2779      2781      2782      2778      2779      2781      2783
      2778      2779      2781      2793      2779      2778      2776      2784
      2779      2781      2793      2794      2779      2781      2793      2795
      2779      2781      2793      2796      2780      2779      2781      2782
      2780      2779      2781      2783      2780      2779      2781      2793
      2781      2793      2796      2797      2781      2793      2796      2798
      2781      2793      2796      2799      2782      2781      2793      2794
      2782      2781      2793      2795      2782      2781      2793      2796
      2783      2781      2793      2794      2783      2781      2793      2795
      2783      2781      2793      2796      2784      2787      2788      2789
      2784      2787      2788      2790      2785      2784      2787      2788
      2786      2784      2787      2788      2787      2788      2790      2791
      2787      2788      2790      2792      2787      2788      2790      2840
      2788      2790      2840      2841      2788      2790      2840      2842
      2788      2790      2840      2843      2789      2788      2790      2791
      2789      2788      2790      2792      2789      2788      2790      2840
      2790      2840      2843      2844      2790      2840      2843      2845
      2790      2840      2843      2846      2791      2790      2840      2841
      2791      2790      2840      2842      2791      2790      2840      2843
      2792      2790      2840      2841      2792      2790      2840      2842
      2792      2790      2840      2843      2793      2796      2799      2800
      2793      2796      2799      2801      2793      2796      2799      2802
      2794      2793      2796      2797      2794      2793      2796      2798
      2794      2793      2796      2799      2795      2793      2796      2797
      2795      2793      2796      2798      2795      2793      2796      2799
      2796      2799      2802      2803      2796      2799      2802      2804
      2796      2799      2802      2805      2797      2796      2799      2800
      2797      2796      2799      2801      2797      2796      2799      2802
      2798      2796      2799      2800      2798      2796      2799      2801
      2798      2796      2799      2802      2799      2802      2805      2806
      2799      2802      2805      2807      2799      2802      2805      2808
      2800      2799      2802      2803      2800      2799      2802      2804
      2800      2799      2802      2805      2801      2799      2802      2803
      2801      2799      2802      2804      2801      2799      2802      2805
      2802      2805      2808      2809      2802      2805      2808      2810
      2802      2805      2808      2811      2803      2802      2805      2806
      2803      2802      2805      2807      2803      2802      2805      2808
      2804      2802      2805      2806      2804      2802      2805      2807
      2804      2802      2805      2808      2805      2808      2811      2812
      2805      2808      2811      2813      2806      2805      2808      2809
      2806      2805      2808      2810      2806      2805      2808      2811
      2807      2805      2808      2809      2807      2805      2808      2810
      2807      2805      2808      2811      2808      2811      2813      2814
      2808      2811      2813      2815      2809      2808      2811      2812
      2809      2808      2811      2813      2810      2808      2811      2812
      2810      2808      2811      2813      2811      2813      2815      2816
      2811      2813      2815      2817      2811      2813      2815      2818
      2812      2811      2813      2814      2812      2811      2813      2815
      2813      2815      2818      2819      2813      2815      2818      2820
      2813      2815      2818      2821      2814      2813      2815      2816
      2814      2813      2815      2817      2814      2813      2815      2818
      2815      2818      2821      2822      2815      2818      2821      2823
      2815      2818      2821      2824      2816      2815      2818      2819
      2816      2815      2818      2820      2816      2815      2818      2821
      2817      2815      2818      2819      2817      2815      2818      2820
      2817      2815      2818      2821      2818      2821      2824      2825
      2818      2821      2824      2826      2818      2821      2824      2827
      2819      2818      2821      2822      2819      2818      2821      2823
      2819      2818      2821      2824      2820      2818      2821      2822
      2820      2818      2821      2823      2820      2818      2821      2824
      2821      2824      2827      2828      2821      2824      2827      2829
      2821      2824      2827      2830      2822      2821      2824      2825
      2822      2821      2824      2826      2822      2821      2824      2827
      2823      2821      2824      2825      2823      2821      2824      2826
      2823      2821      2824      2827      2824      2827      2830      2831
      2824      2827      2830      2832      2824      2827      2830      2833
      2825      2824      2827      2828      2825      2824      2827      2829
      2825      2824      2827      2830      2826      2824      2827      2828
      2826      2824      2827      2829      2826      2824      2827      2830
      2827      2830      2833      2834      2827      2830      2833      2835
      2827      2830      2833      2836      2828      2827      2830      2831
      2828      2827      2830      2832      2828      2827      2830      2833
      2829      2827      2830      2831      2829      2827      2830      2832
      2829      2827      2830      2833      2830      2833      2836      2837
      2830      2833      2836      2838      2830      2833      2836      2839
      2831      2830      2833      2834      2831      2830      2833      2835
      2831      2830      2833      2836      2832      2830      2833      2834
      2832      2830      2833      2835      2832      2830      2833      2836
      2834      2833      2836      2837      2834      2833      2836      2838
      2834      2833      2836      2839      2835      2833      2836      2837
      2835      2833      2836      2838      2835      2833      2836      2839
      2840      2843      2846      2847      2840      2843      2846      2848
      2840      2843      2846      2849      2841      2840      2843      2844
      2841      2840      2843      2845      2841      2840      2843      2846
      2842      2840      2843      2844      2842      2840      2843      2845
      2842      2840      2843      2846      2843      2846      2849      2850
      2843      2846      2849      2851      2843      2846      2849      2852
      2844      2843      2846      2847      2844      2843      2846      2848
      2844      2843      2846      2849      2845      2843      2846      2847
      2845      2843      2846      2848      2845      2843      2846      2849
      2846      2849      2852      2853      2846      2849      2852      2854
      2846      2849      2852      2855      2847      2846      2849      2850
      2847      2846      2849      2851      2847      2846      2849      2852
      2848      2846      2849      2850      2848      2846      2849      2851
      2848      2846      2849      2852      2849      2852      2855      2856
      2849      2852      2855      2857      2849      2852      2855      2858
      2850      2849      2852      2853      2850      2849      2852      2854
      2850      2849      2852      2855      2851      2849      2852      2853
      2851      2849      2852      2854      2851      2849      2852      2855
      2852      2855      2858      2859      2852      2855      2858      2860
      2852      2855      2858      2861      2853      2852      2855      2856
      2853      2852      2855      2857      2853      2852      2855      2858
      2854      2852      2855      2856      2854      2852      2855      2857
      2854      2852      2855      2858      2855      2858      2861      2862
      2855      2858      2861      2863      2855      2858      2861      2864
      2856      2855      2858      2859      2856      2855      2858      2860
      2856      2855      2858      2861      2857      2855      2858      2859
      2857      2855      2858      2860      2857      2855      2858      2861
      2858      2861      2864      2865      2858      2861      2864      2866
      2858      2861      2864      2867      2859      2858      2861      2862
      2859      2858      2861      2863      2859      2858      2861      2864
      2860      2858      2861      2862      2860      2858      2861      2863
      2860      2858      2861      2864      2861      2864      2867      2868
      2861      2864      2867      2869      2861      2864      2867      2870
      2862      2861      2864      2865      2862      2861      2864      2866
      2862      2861      2864      2867      2863      2861      2864      2865
      2863      2861      2864      2866      2863      2861      2864      2867
      2864      2867      2870      2871      2864      2867      2870      2872
      2864      2867      2870      2873      2865      2864      2867      2868
      2865      2864      2867      2869      2865      2864      2867      2870
      2866      2864      2867      2868      2866      2864      2867      2869
      2866      2864      2867      2870      2867      2870      2873      2874
      2867      2870      2873      2875      2867      2870      2873      2876
      2868      2867      2870      2871      2868      2867      2870      2872
      2868      2867      2870      2873      2869      2867      2870      2871
      2869      2867      2870      2872      2869      2867      2870      2873
      2870      2873      2876      2877      2870      2873      2876      2878
      2870      2873      2876      2879      2871      2870      2873      2874
      2871      2870      2873      2875      2871      2870      2873      2876
      2872      2870      2873      2874      2872      2870      2873      2875
      2872      2870      2873      2876      2873      2876      2879      2880
      2873      2876      2879      2881      2873      2876      2879      2882
      2874      2873      2876      2877      2874      2873      2876      2878
      2874      2873      2876      2879      2875      2873      2876      2877
      2875      2873      2876      2878      2875      2873      2876      2879
      2877      2876      2879      2880      2877      2876      2879      2881
      2877      2876      2879      2882      2878      2876      2879      2880
      2878      2876      2879      2881      2878      2876      2879      2882
      2883      2884      2899      2900      2883      2884      2899      2901
      2883      2884      2899      2905      2884      2883      2887      2888
      2884      2883      2887      2889      2884      2883      2887      2890
      2884      2883      2891      2892      2884      2883      2891      2893
      2884      2883      2891      2894      2884      2883      2895      2896
      2884      2883      2895      2897      2884      2883      2895      2898
      2884      2899      2905      2902      2885      2884      2883      2887
      2885      2884      2883      2891      2885      2884      2883      2895
      2885      2884      2899      2900      2885      2884      2899      2901
      2885      2884      2899      2905      2886      2884      2883      2887
      2886      2884      2883      2891      2886      2884      2883      2895
      2886      2884      2899      2900      2886      2884      2899      2901
      2886      2884      2899      2905      2887      2883      2884      2899
      2887      2883      2891      2892      2887      2883      2891      2893
      2887      2883      2891      2894      2887      2883      2895      2896
      2887      2883      2895      2897      2887      2883      2895      2898
      2888      2887      2883      2891      2888      2887      2883      2895
      2889      2887      2883      2891      2889      2887      2883      2895
      2890      2887      2883      2891      2890      2887      2883      2895
      2891      2883      2884      2899      2891      2883      2895      2896
      2891      2883      2895      2897      2891      2883      2895      2898
      2892      2891      2883      2895      2893      2891      2883      2895
      2894      2891      2883      2895      2895      2883      2884      2899
      2899      2905      2902      2903      2899      2905      2902      2904
      2899      2905      2902      2906      2900      2899      2905      2902
      2901      2899      2905      2902      2902      2906      2907      2908
      2902      2906      2907      2909      2902      2906      2907      2910
      2903      2902      2906      2907      2904      2902      2906      2907
      2905      2902      2906      2907      2906      2907      2910      2911
      2906      2907      2910      2912      2906      2907      2910      2918
      2907      2910      2912      2913      2907      2910      2918      2919
      2907      2910      2918      2920      2907      2910      2918      2921
      2908      2907      2910      2911      2908      2907      2910      2912
      2908      2907      2910      2918      2909      2907      2910      2911
      2909      2907      2910      2912      2909      2907      2910      2918
      2910      2912      2913      2914      2910      2912      2913      2915
      2910      2918      2921      2922      2911      2910      2912      2913
      2911      2910      2918      2919      2911      2910      2918      2920
      2911      2910      2918      2921      2912      2910      2918      2919
      2912      2910      2918      2920      2912      2910      2918      2921
      2912      2913      2915      2916      2912      2913      2915      2917
      2912      2913      2915      2927      2913      2912      2910      2918
      2913      2915      2927      2928      2913      2915      2927      2929
      2913      2915      2927      2930      2914      2913      2915      2916
      2914      2913      2915      2917      2914      2913      2915      2927
      2915      2927      2930      2931      2915      2927      2930      2932
      2915      2927      2930      2933      2916      2915      2927      2928
      2916      2915      2927      2929      2916      2915      2927      2930
      2917      2915      2927      2928      2917      2915      2927      2929
      2917      2915      2927      2930      2918      2921      2922      2923
      2918      2921      2922      2924      2919      2918      2921      2922
      2920      2918      2921      2922      2921      2922      2924      2925
      2921      2922      2924      2926      2921      2922      2924      2974
      2922      2924      2974      2975      2922      2924      2974      2976
      2922      2924      2974      2977      2923      2922      2924      2925
      2923      2922      2924      2926      2923      2922      2924      2974
      2924      2974      2977      2978      2924      2974      2977      2979
      2924      2974      2977      2980      2925      2924      2974      2975
      2925      2924      2974      2976      2925      2924      2974      2977
      2926      2924      2974      2975      2926      2924      2974      2976
      2926      2924      2974      2977      2927      2930      2933      2934
      2927      2930      2933      2935      2927      2930      2933      2936
      2928      2927      2930      2931      2928      2927      2930      2932
      2928      2927      2930      2933      2929      2927      2930      2931
      2929      2927      2930      2932      2929      2927      2930      2933
      2930      2933      2936      2937      2930      2933      2936      2938
      2930      2933      2936      2939      2931      2930      2933      2934
      2931      2930      2933      2935      2931      2930      2933      2936
      2932      2930      2933      2934      2932      2930      2933      2935
      2932      2930      2933      2936      2933      2936      2939      2940
      2933      2936      2939      2941      2933      2936      2939      2942
      2934      2933      2936      2937      2934      2933      2936      2938
      2934      2933      2936      2939      2935      2933      2936      2937
      2935      2933      2936      2938      2935      2933      2936      2939
      2936      2939      2942      2943      2936      2939      2942      2944
      2936      2939      2942      2945      2937      2936      2939      2940
      2937      2936      2939      2941      2937      2936      2939      2942
      2938      2936      2939      2940      2938      2936      2939      2941
      2938      2936      2939      2942      2939      2942      2945      2946
      2939      2942      2945      2947      2940      2939      2942      2943
      2940      2939      2942      2944      2940      2939      2942      2945
      2941      2939      2942      2943      2941      2939      2942      2944
      2941      2939      2942      2945      2942      2945      2947      2948
      2942      2945      2947      2949      2943      2942      2945      2946
      2943      2942      2945      2947      2944      2942      2945      2946
      2944      2942      2945      2947      2945      2947      2949      2950
      2945      2947      2949      2951      2945      2947      2949      2952
      2946      2945      2947      2948      2946      2945      2947      2949
      2947      2949      2952      2953      2947      2949      2952      2954
      2947      2949      2952      2955      2948      2947      2949      2950
      2948      2947      2949      2951      2948      2947      2949      2952
      2949      2952      2955      2956      2949      2952      2955      2957
      2949      2952      2955      2958      2950      2949      2952      2953
      2950      2949      2952      2954      2950      2949      2952      2955
      2951      2949      2952      2953      2951      2949      2952      2954
      2951      2949      2952      2955      2952      2955      2958      2959
      2952      2955      2958      2960      2952      2955      2958      2961
      2953      2952      2955      2956      2953      2952      2955      2957
      2953      2952      2955      2958      2954      2952      2955      2956
      2954      2952      2955      2957      2954      2952      2955      2958
      2955      2958      2961      2962      2955      2958      2961      2963
      2955      2958      2961      2964      2956      2955      2958      2959
      2956      2955      2958      2960      2956      2955      2958      2961
      2957      2955      2958      2959      2957      2955      2958      2960
      2957      2955      2958      2961      2958      2961      2964      2965
      2958      2961      2964      2966      2958      2961      2964      2967
      2959      2958      2961      2962      2959      2958      2961      2963
      2959      2958      2961      2964      2960      2958      2961      2962
      2960      2958      2961      2963      2960      2958      2961      2964
      2961      2964      2967      2968      2961      2964      2967      2969
      2961      2964      2967      2970      2962      2961      2964      2965
      2962      2961      2964      2966      2962      2961      2964      2967
      2963      2961      2964      2965      2963      2961      2964      2966
      2963      2961      2964      2967      2964      2967      2970      2971
      2964      2967      2970      2972      2964      2967      2970      2973
      2965      2964      2967      2968      2965      2964      2967      2969
      2965      2964      2967      2970      2966      2964      2967      2968
      2966      2964      2967      2969      2966      2964      2967      2970
      2968      2967      2970      2971      2968      2967      2970      2972
      2968      2967      2970      2973      2969      2967      2970      2971
      2969      2967      2970      2972      2969      2967      2970      2973
      2974      2977      2980      2981      2974      2977      2980      2982
      2974      2977      2980      2983      2975      2974      2977      2978
      2975      2974      2977      2979      2975      2974      2977      2980
      2976      2974      2977      2978      2976      2974      2977      2979
      2976      2974      2977      2980      2977      2980      2983      2984
      2977      2980      2983      2985      2977      2980      2983      2986
      2978      2977      2980      2981      2978      2977      2980      2982
      2978      2977      2980      2983      2979      2977      2980      2981
      2979      2977      2980      2982      2979      2977      2980      2983
      2980      2983      2986      2987      2980      2983      2986      2988
      2980      2983      2986      2989      2981      2980      2983      2984
      2981      2980      2983      2985      2981      2980      2983      2986
      2982      2980      2983      2984      2982      2980      2983      2985
      2982      2980      2983      2986      2983      2986      2989      2990
      2983      2986      2989      2991      2983      2986      2989      2992
      2984      2983      2986      2987      2984      2983      2986      2988
      2984      2983      2986      2989      2985      2983      2986      2987
      2985      2983      2986      2988      2985      2983      2986      2989
      2986      2989      2992      2993      2986      2989      2992      2994
      2986      2989      2992      2995      2987      2986      2989      2990
      2987      2986      2989      2991      2987      2986      2989      2992
      2988      2986      2989      2990      2988      2986      2989      2991
      2988      2986      2989      2992      2989      2992      2995      2996
      2989      2992      2995      2997      2989      2992      2995      2998
      2990      2989      2992      2993      2990      2989      2992      2994
      2990      2989      2992      2995      2991      2989      2992      2993
      2991      2989      2992      2994      2991      2989      2992      2995
      2992      2995      2998      2999      2992      2995      2998      3000
      2992      2995      2998      3001      2993      2992      2995      2996
      2993      2992      2995      2997      2993      2992      2995      2998
      2994      2992      2995      2996      2994      2992      2995      2997
      2994      2992      2995      2998      2995      2998      3001      3002
      2995      2998      3001      3003      2995      2998      3001      3004
      2996      2995      2998      2999      2996      2995      2998      3000
      2996      2995      2998      3001      2997      2995      2998      2999
      2997      2995      2998      3000      2997      2995      2998      3001
      2998      3001      3004      3005      2998      3001      3004      3006
      2998      3001      3004      3007      2999      2998      3001      3002
      2999      2998      3001      3003      2999      2998      3001      3004
      3000      2998      3001      3002      3000      2998      3001      3003
      3000      2998      3001      3004      3001      3004      3007      3008
      3001      3004      3007      3009      3001      3004      3007      3010
      3002      3001      3004      3005      3002      3001      3004      3006
      3002      3001      3004      3007      3003      3001      3004      3005
      3003      3001      3004      3006      3003      3001      3004      3007
      3004      3007      3010      3011      3004      3007      3010      3012
      3004      3007      3010      3013      3005      3004      3007      3008
      3005      3004      3007      3009      3005      3004      3007      3010
      3006      3004      3007      3008      3006      3004      3007      3009
      3006      3004      3007      3010      3007      3010      3013      3014
      3007      3010      3013      3015      3007      3010      3013      3016
      3008      3007      3010      3011      3008      3007      3010      3012
      3008      3007      3010      3013      3009      3007      3010      3011
      3009      3007      3010      3012      3009      3007      3010      3013
      3011      3010      3013      3014      3011      3010      3013      3015
      3011      3010      3013      3016      3012      3010      3013      3014
      3012      3010      3013      3015      3012      3010      3013      3016
      3017      3018      3033      3034      3017      3018      3033      3035
      3017      3018      3033      3039      3018      3017      3021      3022
      3018      3017      3021      3023      3018      3017      3021      3024
      3018      3017      3025      3026      3018      3017      3025      3027
      3018      3017      3025      3028      3018      3017      3029      3030
      3018      3017      3029      3031      3018      3017      3029      3032
      3018      3033      3039      3036      3019      3018      3017      3021
      3019      3018      3017      3025      3019      3018      3017      3029
      3019      3018      3033      3034      3019      3018      3033      3035
      3019      3018      3033      3039      3020      3018      3017      3021
      3020      3018      3017      3025      3020      3018      3017      3029
      3020      3018      3033      3034      3020      3018      3033      3035
      3020      3018      3033      3039      3021      3017      3018      3033
      3021      3017      3025      3026      3021      3017      3025      3027
      3021      3017      3025      3028      3021      3017      3029      3030
      3021      3017      3029      3031      3021      3017      3029      3032
      3022      3021      3017      3025      3022      3021      3017      3029
      3023      3021      3017      3025      3023      3021      3017      3029
      3024      3021      3017      3025      3024      3021      3017      3029
      3025      3017      3018      3033      3025      3017      3029      3030
      3025      3017      3029      3031      3025      3017      3029      3032
      3026      3025      3017      3029      3027      3025      3017      3029
      3028      3025      3017      3029      3029      3017      3018      3033
      3033      3039      3036      3037      3033      3039      3036      3038
      3033      3039      3036      3040      3034      3033      3039      3036
      3035      3033      3039      3036      3036      3040      3041      3042
      3036      3040      3041      3043      3036      3040      3041      3044
      3037      3036      3040      3041      3038      3036      3040      3041
      3039      3036      3040      3041      3040      3041      3044      3045
      3040      3041      3044      3046      3040      3041      3044      3052
      3041      3044      3046      3047      3041      3044      3052      3053
      3041      3044      3052      3054      3041      3044      3052      3055
      3042      3041      3044      3045      3042      3041      3044      3046
      3042      3041      3044      3052      3043      3041      3044      3045
      3043      3041      3044      3046      3043      3041      3044      3052
      3044      3046      3047      3048      3044      3046      3047      3049
      3044      3052      3055      3056      3045      3044      3046      3047
      3045      3044      3052      3053      3045      3044      3052      3054
      3045      3044      3052      3055      3046      3044      3052      3053
      3046      3044      3052      3054      3046      3044      3052      3055
      3046      3047      3049      3050      3046      3047      3049      3051
      3046      3047      3049      3061      3047      3046      3044      3052
      3047      3049      3061      3062      3047      3049      3061      3063
      3047      3049      3061      3064      3048      3047      3049      3050
      3048      3047      3049      3051      3048      3047      3049      3061
      3049      3061      3064      3065      3049      3061      3064      3066
      3049      3061      3064      3067      3050      3049      3061      3062
      3050      3049      3061      3063      3050      3049      3061      3064
      3051      3049      3061      3062      3051      3049      3061      3063
      3051      3049      3061      3064      3052      3055      3056      3057
      3052      3055      3056      3058      3053      3052      3055      3056
      3054      3052      3055      3056      3055      3056      3058      3059
      3055      3056      3058      3060      3055      3056      3058      3108
      3056      3058      3108      3109      3056      3058      3108      3110
      3056      3058      3108      3111      3057      3056      3058      3059
      3057      3056      3058      3060      3057      3056      3058      3108
      3058      3108      3111      3112      3058      3108      3111      3113
      3058      3108      3111      3114      3059      3058      3108      3109
      3059      3058      3108      3110      3059      3058      3108      3111
      3060      3058      3108      3109      3060      3058      3108      3110
      3060      3058      3108      3111      3061      3064      3067      3068
      3061      3064      3067      3069      3061      3064      3067      3070
      3062      3061      3064      3065      3062      3061      3064      3066
      3062      3061      3064      3067      3063      3061      3064      3065
      3063      3061      3064      3066      3063      3061      3064      3067
      3064      3067      3070      3071      3064      3067      3070      3072
      3064      3067      3070      3073      3065      3064      3067      3068
      3065      3064      3067      3069      3065      3064      3067      3070
      3066      3064      3067      3068      3066      3064      3067      3069
      3066      3064      3067      3070      3067      3070      3073      3074
      3067      3070      3073      3075      3067      3070      3073      3076
      3068      3067      3070      3071      3068      3067      3070      3072
      3068      3067      3070      3073      3069      3067      3070      3071
      3069      3067      3070      3072      3069      3067      3070      3073
      3070      3073      3076      3077      3070      3073      3076      3078
      3070      3073      3076      3079      3071      3070      3073      3074
      3071      3070      3073      3075      3071      3070      3073      3076
      3072      3070      3073      3074      3072      3070      3073      3075
      3072      3070      3073      3076      3073      3076      3079      3080
      3073      3076      3079      3081      3074      3073      3076      3077
      3074      3073      3076      3078      3074      3073      3076      3079
      3075      3073      3076      3077      3075      3073      3076      3078
      3075      3073      3076      3079      3076      3079      3081      3082
      3076      3079      3081      3083      3077      3076      3079      3080
      3077      3076      3079      3081      3078      3076      3079      3080
      3078      3076      3079      3081      3079      3081      3083      3084
      3079      3081      3083      3085      3079      3081      3083      3086
      3080      3079      3081      3082      3080      3079      3081      3083
      3081      3083      3086      3087      3081      3083      3086      3088
      3081      3083      3086      3089      3082      3081      3083      3084
      3082      3081      3083      3085      3082      3081      3083      3086
      3083      3086      3089      3090      3083      3086      3089      3091
      3083      3086      3089      3092      3084      3083      3086      3087
      3084      3083      3086      3088      3084      3083      3086      3089
      3085      3083      3086      3087      3085      3083      3086      3088
      3085      3083      3086      3089      3086      3089      3092      3093
      3086      3089      3092      3094      3086      3089      3092      3095
      3087      3086      3089      3090      3087      3086      3089      3091
      3087      3086      3089      3092      3088      3086      3089      3090
      3088      3086      3089      3091      3088      3086      3089      3092
      3089      3092      3095      3096      3089      3092      3095      3097
      3089      3092      3095      3098      3090      3089      3092      3093
      3090      3089      3092      3094      3090      3089      3092      3095
      3091      3089      3092      3093      3091      3089      3092      3094
      3091      3089      3092      3095      3092      3095      3098      3099
      3092      3095      3098      3100      3092      3095      3098      3101
      3093      3092      3095      3096      3093      3092      3095      3097
      3093      3092      3095      3098      3094      3092      3095      3096
      3094      3092      3095      3097      3094      3092      3095      3098
      3095      3098      3101      3102      3095      3098      3101      3103
      3095      3098      3101      3104      3096      3095      3098      3099
      3096      3095      3098      3100      3096      3095      3098      3101
      3097      3095      3098      3099      3097      3095      3098      3100
      3097      3095      3098      3101      3098      3101      3104      3105
      3098      3101      3104      3106      3098      3101      3104      3107
      3099      3098      3101      3102      3099      3098      3101      3103
      3099      3098      3101      3104      3100      3098      3101      3102
      3100      3098      3101      3103      3100      3098      3101      3104
      3102      3101      3104      3105      3102      3101      3104      3106
      3102      3101      3104      3107      3103      3101      3104      3105
      3103      3101      3104      3106      3103      3101      3104      3107
      3108      3111      3114      3115      3108      3111      3114      3116
      3108      3111      3114      3117      3109      3108      3111      3112
      3109      3108      3111      3113      3109      3108      3111      3114
      3110      3108      3111      3112      3110      3108      3111      3113
      3110      3108      3111      3114      3111      3114      3117      3118
      3111      3114      3117      3119      3111      3114      3117      3120
      3112      3111      3114      3115      3112      3111      3114      3116
      3112      3111      3114      3117      3113      3111      3114      3115
      3113      3111      3114      3116      3113      3111      3114      3117
      3114      3117      3120      3121      3114      3117      3120      3122
      3114      3117      3120      3123      3115      3114      3117      3118
      3115      3114      3117      3119      3115      3114      3117      3120
      3116      3114      3117      3118      3116      3114      3117      3119
      3116      3114      3117      3120      3117      3120      3123      3124
      3117      3120      3123      3125      3117      3120      3123      3126
      3118      3117      3120      3121      3118      3117      3120      3122
      3118      3117      3120      3123      3119      3117      3120      3121
      3119      3117      3120      3122      3119      3117      3120      3123
      3120      3123      3126      3127      3120      3123      3126      3128
      3120      3123      3126      3129      3121      3120      3123      3124
      3121      3120      3123      3125      3121      3120      3123      3126
      3122      3120      3123      3124      3122      3120      3123      3125
      3122      3120      3123      3126      3123      3126      3129      3130
      3123      3126      3129      3131      3123      3126      3129      3132
      3124      3123      3126      3127      3124      3123      3126      3128
      3124      3123      3126      3129      3125      3123      3126      3127
      3125      3123      3126      3128      3125      3123      3126      3129
      3126      3129      3132      3133      3126      3129      3132      3134
      3126      3129      3132      3135      3127      3126      3129      3130
      3127      3126      3129      3131      3127      3126      3129      3132
      3128      3126      3129      3130      3128      3126      3129      3131
      3128      3126      3129      3132      3129      3132      3135      3136
      3129      3132      3135      3137      3129      3132      3135      3138
      3130      3129      3132      3133      3130      3129      3132      3134
      3130      3129      3132      3135      3131      3129      3132      3133
      3131      3129      3132      3134      3131      3129      3132      3135
      3132      3135      3138      3139      3132      3135      3138      3140
      3132      3135      3138      3141      3133      3132      3135      3136
      3133      3132      3135      3137      3133      3132      3135      3138
      3134      3132      3135      3136      3134      3132      3135      3137
      3134      3132      3135      3138      3135      3138      3141      3142
      3135      3138      3141      3143      3135      3138      3141      3144
      3136      3135      3138      3139      3136      3135      3138      3140
      3136      3135      3138      3141      3137      3135      3138      3139
      3137      3135      3138      3140      3137      3135      3138      3141
      3138      3141      3144      3145      3138      3141      3144      3146
      3138      3141      3144      3147      3139      3138      3141      3142
      3139      3138      3141      3143      3139      3138      3141      3144
      3140      3138      3141      3142      3140      3138      3141      3143
      3140      3138      3141      3144      3141      3144      3147      3148
      3141      3144      3147      3149      3141      3144      3147      3150
      3142      3141      3144      3145      3142      3141      3144      3146
      3142      3141      3144      3147      3143      3141      3144      3145
      3143      3141      3144      3146      3143      3141      3144      3147
      3145      3144      3147      3148      3145      3144      3147      3149
      3145      3144      3147      3150      3146      3144      3147      3148
      3146      3144      3147      3149      3146      3144      3147      3150
      3151      3152      3167      3168      3151      3152      3167      3169
      3151      3152      3167      3173      3152      3151      3155      3156
      3152      3151      3155      3157      3152      3151      3155      3158
      3152      3151      3159      3160      3152      3151      3159      3161
      3152      3151      3159      3162      3152      3151      3163      3164
      3152      3151      3163      3165      3152      3151      3163      3166
      3152      3167      3173      3170      3153      3152      3151      3155
      3153      3152      3151      3159      3153      3152      3151      3163
      3153      3152      3167      3168      3153      3152      3167      3169
      3153      3152      3167      3173      3154      3152      3151      3155
      3154      3152      3151      3159      3154      3152      3151      3163
      3154      3152      3167      3168      3154      3152      3167      3169
      3154      3152      3167      3173      3155      3151      3152      3167
      3155      3151      3159      3160      3155      3151      3159      3161
      3155      3151      3159      3162      3155      3151      3163      3164
      3155      3151      3163      3165      3155      3151      3163      3166
      3156      3155      3151      3159      3156      3155      3151      3163
      3157      3155      3151      3159      3157      3155      3151      3163
      3158      3155      3151      3159      3158      3155      3151      3163
      3159      3151      3152      3167      3159      3151      3163      3164
      3159      3151      3163      3165      3159      3151      3163      3166
      3160      3159      3151      3163      3161      3159      3151      3163
      3162      3159      3151      3163      3163      3151      3152      3167
      3167      3173      3170      3171      3167      3173      3170      3172
      3167      3173      3170      3174      3168      3167      3173      3170
      3169      3167      3173      3170      3170      3174      3175      3176
      3170      3174      3175      3177      3170      3174      3175      3178
      3171      3170      3174      3175      3172      3170      3174      3175
      3173      3170      3174      3175      3174      3175      3178      3179
      3174      3175      3178      3180      3174      3175      3178      3186
      3175      3178      3180      3181      3175      3178      3186      3187
      3175      3178      3186      3188      3175      3178      3186      3189
      3176      3175      3178      3179      3176      3175      3178      3180
      3176      3175      3178      3186      3177      3175      3178      3179
      3177      3175      3178      3180      3177      3175      3178      3186
      3178      3180      3181      3182      3178      3180      3181      3183
      3178      3186      3189      3190      3179      3178      3180      3181
      3179      3178      3186      3187      3179      3178      3186      3188
      3179      3178      3186      3189      3180      3178      3186      3187
      3180      3178      3186      3188      3180      3178      3186      3189
      3180      3181      3183      3184      3180      3181      3183      3185
      3180      3181      3183      3195      3181      3180      3178      3186
      3181      3183      3195      3196      3181      3183      3195      3197
      3181      3183      3195      3198      3182      3181      3183      3184
      3182      3181      3183      3185      3182      3181      3183      3195
      3183      3195      3198      3199      3183      3195      3198      3200
      3183      3195      3198      3201      3184      3183      3195      3196
      3184      3183      3195      3197      3184      3183      3195      3198
      3185      3183      3195      3196      3185      3183      3195      3197
      3185      3183      3195      3198      3186      3189      3190      3191
      3186      3189      3190      3192      3187      3186      3189      3190
      3188      3186      3189      3190      3189      3190      3192      3193
      3189      3190      3192      3194      3189      3190      3192      3242
      3190      3192      3242      3243      3190      3192      3242      3244
      3190      3192      3242      3245      3191      3190      3192      3193
      3191      3190      3192      3194      3191      3190      3192      3242
      3192      3242      3245      3246      3192      3242      3245      3247
      3192      3242      3245      3248      3193      3192      3242      3243
      3193      3192      3242      3244      3193      3192      3242      3245
      3194      3192      3242      3243      3194      3192      3242      3244
      3194      3192      3242      3245      3195      3198      3201      3202
      3195      3198      3201      3203      3195      3198      3201      3204
      3196      3195      3198      3199      3196      3195      3198      3200
      3196      3195      3198      3201      3197      3195      3198      3199
      3197      3195      3198      3200      3197      3195      3198      3201
      3198      3201      3204      3205      3198      3201      3204      3206
      3198      3201      3204      3207      3199      3198      3201      3202
      3199      3198      3201      3203      3199      3198      3201      3204
      3200      3198      3201      3202      3200      3198      3201      3203
      3200      3198      3201      3204      3201      3204      3207      3208
      3201      3204      3207      3209      3201      3204      3207      3210
      3202      3201      3204      3205      3202      3201      3204      3206
      3202      3201      3204      3207      3203      3201      3204      3205
      3203      3201      3204      3206      3203      3201      3204      3207
      3204      3207      3210      3211      3204      3207      3210      3212
      3204      3207      3210      3213      3205      3204      3207      3208
      3205      3204      3207      3209      3205      3204      3207      3210
      3206      3204      3207      3208      3206      3204      3207      3209
      3206      3204      3207      3210      3207      3210      3213      3214
      3207      3210      3213      3215      3208      3207      3210      3211
      3208      3207      3210      3212      3208      3207      3210      3213
      3209      3207      3210      3211      3209      3207      3210      3212
      3209      3207      3210      3213      3210      3213      3215      3216
      3210      3213      3215      3217      3211      3210      3213      3214
      3211      3210      3213      3215      3212      3210      3213      3214
      3212      3210      3213      3215      3213      3215      3217      3218
      3213      3215      3217      3219      3213      3215      3217      3220
      3214      3213      3215      3216      3214      3213      3215      3217
      3215      3217      3220      3221      3215      3217      3220      3222
      3215      3217      3220      3223      3216      3215      3217      3218
      3216      3215      3217      3219      3216      3215      3217      3220
      3217      3220      3223      3224      3217      3220      3223      3225
      3217      3220      3223      3226      3218      3217      3220      3221
      3218      3217      3220      3222      3218      3217      3220      3223
      3219      3217      3220      3221      3219      3217      3220      3222
      3219      3217      3220      3223      3220      3223      3226      3227
      3220      3223      3226      3228      3220      3223      3226      3229
      3221      3220      3223      3224      3221      3220      3223      3225
      3221      3220      3223      3226      3222      3220      3223      3224
      3222      3220      3223      3225      3222      3220      3223      3226
      3223      3226      3229      3230      3223      3226      3229      3231
      3223      3226      3229      3232      3224      3223      3226      3227
      3224      3223      3226      3228      3224      3223      3226      3229
      3225      3223      3226      3227      3225      3223      3226      3228
      3225      3223      3226      3229      3226      3229      3232      3233
      3226      3229      3232      3234      3226      3229      3232      3235
      3227      3226      3229      3230      3227      3226      3229      3231
      3227      3226      3229      3232      3228      3226      3229      3230
      3228      3226      3229      3231      3228      3226      3229      3232
      3229      3232      3235      3236      3229      3232      3235      3237
      3229      3232      3235      3238      3230      3229      3232      3233
      3230      3229      3232      3234      3230      3229      3232      3235
      3231      3229      3232      3233      3231      3229      3232      3234
      3231      3229      3232      3235      3232      3235      3238      3239
      3232      3235      3238      3240      3232      3235      3238      3241
      3233      3232      3235      3236      3233      3232      3235      3237
      3233      3232      3235      3238      3234      3232      3235      3236
      3234      3232      3235      3237      3234      3232      3235      3238
      3236      3235      3238      3239      3236      3235      3238      3240
      3236      3235      3238      3241      3237      3235      3238      3239
      3237      3235      3238      3240      3237      3235      3238      3241
      3242      3245      3248      3249      3242      3245      3248      3250
      3242      3245      3248      3251      3243      3242      3245      3246
      3243      3242      3245      3247      3243      3242      3245      3248
      3244      3242      3245      3246      3244      3242      3245      3247
      3244      3242      3245      3248      3245      3248      3251      3252
      3245      3248      3251      3253      3245      3248      3251      3254
      3246      3245      3248      3249      3246      3245      3248      3250
      3246      3245      3248      3251      3247      3245      3248      3249
      3247      3245      3248      3250      3247      3245      3248      3251
      3248      3251      3254      3255      3248      3251      3254      3256
      3248      3251      3254      3257      3249      3248      3251      3252
      3249      3248      3251      3253      3249      3248      3251      3254
      3250      3248      3251      3252      3250      3248      3251      3253
      3250      3248      3251      3254      3251      3254      3257      3258
      3251      3254      3257      3259      3251      3254      3257      3260
      3252      3251      3254      3255      3252      3251      3254      3256
      3252      3251      3254      3257      3253      3251      3254      3255
      3253      3251      3254      3256      3253      3251      3254      3257
      3254      3257      3260      3261      3254      3257      3260      3262
      3254      3257      3260      3263      3255      3254      3257      3258
      3255      3254      3257      3259      3255      3254      3257      3260
      3256      3254      3257      3258      3256      3254      3257      3259
      3256      3254      3257      3260      3257      3260      3263      3264
      3257      3260      3263      3265      3257      3260      3263      3266
      3258      3257      3260      3261      3258      3257      3260      3262
      3258      3257      3260      3263      3259      3257      3260      3261
      3259      3257      3260      3262      3259      3257      3260      3263
      3260      3263      3266      3267      3260      3263      3266      3268
      3260      3263      3266      3269      3261      3260      3263      3264
      3261      3260      3263      3265      3261      3260      3263      3266
      3262      3260      3263      3264      3262      3260      3263      3265
      3262      3260      3263      3266      3263      3266      3269      3270
      3263      3266      3269      3271      3263      3266      3269      3272
      3264      3263      3266      3267      3264      3263      3266      3268
      3264      3263      3266      3269      3265      3263      3266      3267
      3265      3263      3266      3268      3265      3263      3266      3269
      3266      3269      3272      3273      3266      3269      3272      3274
      3266      3269      3272      3275      3267      3266      3269      3270
      3267      3266      3269      3271      3267      3266      3269      3272
      3268      3266      3269      3270      3268      3266      3269      3271
      3268      3266      3269      3272      3269      3272      3275      3276
      3269      3272      3275      3277      3269      3272      3275      3278
      3270      3269      3272      3273      3270      3269      3272      3274
      3270      3269      3272      3275      3271      3269      3272      3273
      3271      3269      3272      3274      3271      3269      3272      3275
      3272      3275      3278      3279      3272      3275      3278      3280
      3272      3275      3278      3281      3273      3272      3275      3276
      3273      3272      3275      3277      3273      3272      3275      3278
      3274      3272      3275      3276      3274      3272      3275      3277
      3274      3272      3275      3278      3275      3278      3281      3282
      3275      3278      3281      3283      3275      3278      3281      3284
      3276      3275      3278      3279      3276      3275      3278      3280
      3276      3275      3278      3281      3277      3275      3278      3279
      3277      3275      3278      3280      3277      3275      3278      3281
      3279      3278      3281      3282      3279      3278      3281      3283
      3279      3278      3281      3284      3280      3278      3281      3282
      3280      3278      3281      3283      3280      3278      3281      3284
      3285      3286      3301      3302      3285      3286      3301      3303
      3285      3286      3301      3307      3286      3285      3289      3290
      3286      3285      3289      3291      3286      3285      3289      3292
      3286      3285      3293      3294      3286      3285      3293      3295
      3286      3285      3293      3296      3286      3285      3297      3298
      3286      3285      3297      3299      3286      3285      3297      3300
      3286      3301      3307      3304      3287      3286      3285      3289
      3287      3286      3285      3293      3287      3286      3285      3297
      3287      3286      3301      3302      3287      3286      3301      3303
      3287      3286      3301      3307      3288      3286      3285      3289
      3288      3286      3285      3293      3288      3286      3285      3297
      3288      3286      3301      3302      3288      3286      3301      3303
      3288      3286      3301      3307      3289      3285      3286      3301
      3289      3285      3293      3294      3289      3285      3293      3295
      3289      3285      3293      3296      3289      3285      3297      3298
      3289      3285      3297      3299      3289      3285      3297      3300
      3290      3289      3285      3293      3290      3289      3285      3297
      3291      3289      3285      3293      3291      3289      3285      3297
      3292      3289      3285      3293      3292      3289      3285      3297
      3293      3285      3286      3301      3293      3285      3297      3298
      3293      3285      3297      3299      3293      3285      3297      3300
      3294      3293      3285      3297      3295      3293      3285      3297
      3296      3293      3285      3297      3297      3285      3286      3301
      3301      3307      3304      3305      3301      3307      3304      3306
      3301      3307      3304      3308      3302      3301      3307      3304
      3303      3301      3307      3304      3304      3308      3309      3310
      3304      3308      3309      3311      3304      3308      3309      3312
      3305      3304      3308      3309      3306      3304      3308      3309
      3307      3304      3308      3309      3308      3309      3312      3313
      3308      3309      3312      3314      3308      3309      3312      3320
      3309      3312      3314      3315      3309      3312      3320      3321
      3309      3312      3320      3322      3309      3312      3320      3323
      3310      3309      3312      3313      3310      3309      3312      3314
      3310      3309      3312      3320      3311      3309      3312      3313
      3311      3309      3312      3314      3311      3309      3312      3320
      3312      3314      3315      3316      3312      3314      3315      3317
      3312      3320      3323      3324      3313      3312      3314      3315
      3313      3312      3320      3321      3313      3312      3320      3322
      3313      3312      3320      3323      3314      3312      3320      3321
      3314      3312      3320      3322      3314      3312      3320      3323
      3314      3315      3317      3318      3314      3315      3317      3319
      3314      3315      3317      3329      3315      3314      3312      3320
      3315      3317      3329      3330      3315      3317      3329      3331
      3315      3317      3329      3332      3316      3315      3317      3318
      3316      3315      3317      3319      3316      3315      3317      3329
      3317      3329      3332      3333      3317      3329      3332      3334
      3317      3329      3332      3335      3318      3317      3329      3330
      3318      3317      3329      3331      3318      3317      3329      3332
      3319      3317      3329      3330      3319      3317      3329      3331
      3319      3317      3329      3332      3320      3323      3324      3325
      3320      3323      3324      3326      3321      3320      3323      3324
      3322      3320      3323      3324      3323      3324      3326      3327
      3323      3324      3326      3328      3323      3324      3326      3376
      3324      3326      3376      3377      3324      3326      3376      3378
      3324      3326      3376      3379      3325      3324      3326      3327
      3325      3324      3326      3328      3325      3324      3326      3376
      3326      3376      3379      3380      3326      3376      3379      3381
      3326      3376      3379      3382      3327      3326      3376      3377
      3327      3326      3376      3378      3327      3326      3376      3379
      3328      3326      3376      3377      3328      3326      3376      3378
      3328      3326      3376      3379      3329      3332      3335      3336
      3329      3332      3335      3337      3329      3332      3335      3338
      3330      3329      3332      3333      3330      3329      3332      3334
      3330      3329      3332      3335      3331      3329      3332      3333
      3331      3329      3332      3334      3331      3329      3332      3335
      3332      3335      3338      3339      3332      3335      3338      3340
      3332      3335      3338      3341      3333      3332      3335      3336
      3333      3332      3335      3337      3333      3332      3335      3338
      3334      3332      3335      3336      3334      3332      3335      3337
      3334      3332      3335      3338      3335      3338      3341      3342
      3335      3338      3341      3343      3335      3338      3341      3344
      3336      3335      3338      3339      3336      3335      3338      3340
      3336      3335      3338      3341      3337      3335      3338      3339
      3337      3335      3338      3340      3337      3335      3338      3341
      3338      3341      3344      3345      3338      3341      3344      3346
      3338      3341      3344      3347      3339      3338      3341      3342
      3339      3338      3341      3343      3339      3338      3341      3344
      3340      3338      3341      3342      3340      3338      3341      3343
      3340      3338      3341      3344      3341      3344      3347      3348
      3341      3344      3347      3349      3342      3341      3344      3345
      3342      3341      3344      3346      3342      3341      3344      3347
      3343      3341      3344      3345      3343      3341      3344      3346
      3343      3341      3344      3347      3344      3347      3349      3350
      3344      3347      3349      3351      3345      3344      3347      3348
      3345      3344      3347      3349      3346      3344      3347      3348
      3346      3344      3347      3349      3347      3349      3351      3352
      3347      3349      3351      3353      3347      3349      3351      3354
      3348      3347      3349      3350      3348      3347      3349      3351
      3349      3351      3354      3355      3349      3351      3354      3356
      3349      3351      3354      3357      3350      3349      3351      3352
      3350      3349      3351      3353      3350      3349      3351      3354
      3351      3354      3357      3358      3351      3354      3357      3359
      3351      3354      3357      3360      3352      3351      3354      3355
      3352      3351      3354      3356      3352      3351      3354      3357
      3353      3351      3354      3355      3353      3351      3354      3356
      3353      3351      3354      3357      3354      3357      3360      3361
      3354      3357      3360      3362      3354      3357      3360      3363
      3355      3354      3357      3358      3355      3354      3357      3359
      3355      3354      3357      3360      3356      3354      3357      3358
      3356      3354      3357      3359      3356      3354      3357      3360
      3357      3360      3363      3364      3357      3360      3363      3365
      3357      3360      3363      3366      3358      3357      3360      3361
      3358      3357      3360      3362      3358      3357      3360      3363
      3359      3357      3360      3361      3359      3357      3360      3362
      3359      3357      3360      3363      3360      3363      3366      3367
      3360      3363      3366      3368      3360      3363      3366      3369
      3361      3360      3363      3364      3361      3360      3363      3365
      3361      3360      3363      3366      3362      3360      3363      3364
      3362      3360      3363      3365      3362      3360      3363      3366
      3363      3366      3369      3370      3363      3366      3369      3371
      3363      3366      3369      3372      3364      3363      3366      3367
      3364      3363      3366      3368      3364      3363      3366      3369
      3365      3363      3366      3367      3365      3363      3366      3368
      3365      3363      3366      3369      3366      3369      3372      3373
      3366      3369      3372      3374      3366      3369      3372      3375
      3367      3366      3369      3370      3367      3366      3369      3371
      3367      3366      3369      3372      3368      3366      3369      3370
      3368      3366      3369      3371      3368      3366      3369      3372
      3370      3369      3372      3373      3370      3369      3372      3374
      3370      3369      3372      3375      3371      3369      3372      3373
      3371      3369      3372      3374      3371      3369      3372      3375
      3376      3379      3382      3383      3376      3379      3382      3384
      3376      3379      3382      3385      3377      3376      3379      3380
      3377      3376      3379      3381      3377      3376      3379      3382
      3378      3376      3379      3380      3378      3376      3379      3381
      3378      3376      3379      3382      3379      3382      3385      3386
      3379      3382      3385      3387      3379      3382      3385      3388
      3380      3379      3382      3383      3380      3379      3382      3384
      3380      3379      3382      3385      3381      3379      3382      3383
      3381      3379      3382      3384      3381      3379      3382      3385
      3382      3385      3388      3389      3382      3385      3388      3390
      3382      3385      3388      3391      3383      3382      3385      3386
      3383      3382      3385      3387      3383      3382      3385      3388
      3384      3382      3385      3386      3384      3382      3385      3387
      3384      3382      3385      3388      3385      3388      3391      3392
      3385      3388      3391      3393      3385      3388      3391      3394
      3386      3385      3388      3389      3386      3385      3388      3390
      3386      3385      3388      3391      3387      3385      3388      3389
      3387      3385      3388      3390      3387      3385      3388      3391
      3388      3391      3394      3395      3388      3391      3394      3396
      3388      3391      3394      3397      3389      3388      3391      3392
      3389      3388      3391      3393      3389      3388      3391      3394
      3390      3388      3391      3392      3390      3388      3391      3393
      3390      3388      3391      3394      3391      3394      3397      3398
      3391      3394      3397      3399      3391      3394      3397      3400
      3392      3391      3394      3395      3392      3391      3394      3396
      3392      3391      3394      3397      3393      3391      3394      3395
      3393      3391      3394      3396      3393      3391      3394      3397
      3394      3397      3400      3401      3394      3397      3400      3402
      3394      3397      3400      3403      3395      3394      3397      3398
      3395      3394      3397      3399      3395      3394      3397      3400
      3396      3394      3397      3398      3396      3394      3397      3399
      3396      3394      3397      3400      3397      3400      3403      3404
      3397      3400      3403      3405      3397      3400      3403      3406
      3398      3397      3400      3401      3398      3397      3400      3402
      3398      3397      3400      3403      3399      3397      3400      3401
      3399      3397      3400      3402      3399      3397      3400      3403
      3400      3403      3406      3407      3400      3403      3406      3408
      3400      3403      3406      3409      3401      3400      3403      3404
      3401      3400      3403      3405      3401      3400      3403      3406
      3402      3400      3403      3404      3402      3400      3403      3405
      3402      3400      3403      3406      3403      3406      3409      3410
      3403      3406      3409      3411      3403      3406      3409      3412
      3404      3403      3406      3407      3404      3403      3406      3408
      3404      3403      3406      3409      3405      3403      3406      3407
      3405      3403      3406      3408      3405      3403      3406      3409
      3406      3409      3412      3413      3406      3409      3412      3414
      3406      3409      3412      3415      3407      3406      3409      3410
      3407      3406      3409      3411      3407      3406      3409      3412
      3408      3406      3409      3410      3408      3406      3409      3411
      3408      3406      3409      3412      3409      3412      3415      3416
      3409      3412      3415      3417      3409      3412      3415      3418
      3410      3409      3412      3413      3410      3409      3412      3414
      3410      3409      3412      3415      3411      3409      3412      3413
      3411      3409      3412      3414      3411      3409      3412      3415
      3413      3412      3415      3416      3413      3412      3415      3417
      3413      3412      3415      3418      3414      3412      3415      3416
      3414      3412      3415      3417      3414      3412      3415      3418
      3419      3420      3435      3436      3419      3420      3435      3437
      3419      3420      3435      3441      3420      3419      3423      3424
      3420      3419      3423      3425      3420      3419      3423      3426
      3420      3419      3427      3428      3420      3419      3427      3429
      3420      3419      3427      3430      3420      3419      3431      3432
      3420      3419      3431      3433      3420      3419      3431      3434
      3420      3435      3441      3438      3421      3420      3419      3423
      3421      3420      3419      3427      3421      3420      3419      3431
      3421      3420      3435      3436      3421      3420      3435      3437
      3421      3420      3435      3441      3422      3420      3419      3423
      3422      3420      3419      3427      3422      3420      3419      3431
      3422      3420      3435      3436      3422      3420      3435      3437
      3422      3420      3435      3441      3423      3419      3420      3435
      3423      3419      3427      3428      3423      3419      3427      3429
      3423      3419      3427      3430      3423      3419      3431      3432
      3423      3419      3431      3433      3423      3419      3431      3434
      3424      3423      3419      3427      3424      3423      3419      3431
      3425      3423      3419      3427      3425      3423      3419      3431
      3426      3423      3419      3427      3426      3423      3419      3431
      3427      3419      3420      3435      3427      3419      3431      3432
      3427      3419      3431      3433      3427      3419      3431      3434
      3428      3427      3419      3431      3429      3427      3419      3431
      3430      3427      3419      3431      3431      3419      3420      3435
      3435      3441      3438      3439      3435      3441      3438      3440
      3435      3441      3438      3442      3436      3435      3441      3438
      3437      3435      3441      3438      3438      3442      3443      3444
      3438      3442      3443      3445      3438      3442      3443      3446
      3439      3438      3442      3443      3440      3438      3442      3443
      3441      3438      3442      3443      3442      3443      3446      3447
      3442      3443      3446      3448      3442      3443      3446      3454
      3443      3446      3448      3449      3443      3446      3454      3455
      3443      3446      3454      3456      3443      3446      3454      3457
      3444      3443      3446      3447      3444      3443      3446      3448
      3444      3443      3446      3454      3445      3443      3446      3447
      3445      3443      3446      3448      3445      3443      3446      3454
      3446      3448      3449      3450      3446      3448      3449      3451
      3446      3454      3457      3458      3447      3446      3448      3449
      3447      3446      3454      3455      3447      3446      3454      3456
      3447      3446      3454      3457      3448      3446      3454      3455
      3448      3446      3454      3456      3448      3446      3454      3457
      3448      3449      3451      3452      3448      3449      3451      3453
      3448      3449      3451      3463      3449      3448      3446      3454
      3449      3451      3463      3464      3449      3451      3463      3465
      3449      3451      3463      3466      3450      3449      3451      3452
      3450      3449      3451      3453      3450      3449      3451      3463
      3451      3463      3466      3467      3451      3463      3466      3468
      3451      3463      3466      3469      3452      3451      3463      3464
      3452      3451      3463      3465      3452      3451      3463      3466
      3453      3451      3463      3464      3453      3451      3463      3465
      3453      3451      3463      3466      3454      3457      3458      3459
      3454      3457      3458      3460      3455      3454      3457      3458
      3456      3454      3457      3458      3457      3458      3460      3461
      3457      3458      3460      3462      3457      3458      3460      3510
      3458      3460      3510      3511      3458      3460      3510      3512
      3458      3460      3510      3513      3459      3458      3460      3461
      3459      3458      3460      3462      3459      3458      3460      3510
      3460      3510      3513      3514      3460      3510      3513      3515
      3460      3510      3513      3516      3461      3460      3510      3511
      3461      3460      3510      3512      3461      3460      3510      3513
      3462      3460      3510      3511      3462      3460      3510      3512
      3462      3460      3510      3513      3463      3466      3469      3470
      3463      3466      3469      3471      3463      3466      3469      3472
      3464      3463      3466      3467      3464      3463      3466      3468
      3464      3463      3466      3469      3465      3463      3466      3467
      3465      3463      3466      3468      3465      3463      3466      3469
      3466      3469      3472      3473      3466      3469      3472      3474
      3466      3469      3472      3475      3467      3466      3469      3470
      3467      3466      3469      3471      3467      3466      3469      3472
      3468      3466      3469      3470      3468      3466      3469      3471
      3468      3466      3469      3472      3469      3472      3475      3476
      3469      3472      3475      3477      3469      3472      3475      3478
      3470      3469      3472      3473      3470      3469      3472      3474
      3470      3469      3472      3475      3471      3469      3472      3473
      3471      3469      3472      3474      3471      3469      3472      3475
      3472      3475      3478      3479      3472      3475      3478      3480
      3472      3475      3478      3481      3473      3472      3475      3476
      3473      3472      3475      3477      3473      3472      3475      3478
      3474      3472      3475      3476      3474      3472      3475      3477
      3474      3472      3475      3478      3475      3478      3481      3482
      3475      3478      3481      3483      3476      3475      3478      3479
      3476      3475      3478      3480      3476      3475      3478      3481
      3477      3475      3478      3479      3477      3475      3478      3480
      3477      3475      3478      3481      3478      3481      3483      3484
      3478      3481      3483      3485      3479      3478      3481      3482
      3479      3478      3481      3483      3480      3478      3481      3482
      3480      3478      3481      3483      3481      3483      3485      3486
      3481      3483      3485      3487      3481      3483      3485      3488
      3482      3481      3483      3484      3482      3481      3483      3485
      3483      3485      3488      3489      3483      3485      3488      3490
      3483      3485      3488      3491      3484      3483      3485      3486
      3484      3483      3485      3487      3484      3483      3485      3488
      3485      3488      3491      3492      3485      3488      3491      3493
      3485      3488      3491      3494      3486      3485      3488      3489
      3486      3485      3488      3490      3486      3485      3488      3491
      3487      3485      3488      3489      3487      3485      3488      3490
      3487      3485      3488      3491      3488      3491      3494      3495
      3488      3491      3494      3496      3488      3491      3494      3497
      3489      3488      3491      3492      3489      3488      3491      3493
      3489      3488      3491      3494      3490      3488      3491      3492
      3490      3488      3491      3493      3490      3488      3491      3494
      3491      3494      3497      3498      3491      3494      3497      3499
      3491      3494      3497      3500      3492      3491      3494      3495
      3492      3491      3494      3496      3492      3491      3494      3497
      3493      3491      3494      3495      3493      3491      3494      3496
      3493      3491      3494      3497      3494      3497      3500      3501
      3494      3497      3500      3502      3494      3497      3500      3503
      3495      3494      3497      3498      3495      3494      3497      3499
      3495      3494      3497      3500      3496      3494      3497      3498
      3496      3494      3497      3499      3496      3494      3497      3500
      3497      3500      3503      3504      3497      3500      3503      3505
      3497      3500      3503      3506      3498      3497      3500      3501
      3498      3497      3500      3502      3498      3497      3500      3503
      3499      3497      3500      3501      3499      3497      3500      3502
      3499      3497      3500      3503      3500      3503      3506      3507
      3500      3503      3506      3508      3500      3503      3506      3509
      3501      3500      3503      3504      3501      3500      3503      3505
      3501      3500      3503      3506      3502      3500      3503      3504
      3502      3500      3503      3505      3502      3500      3503      3506
      3504      3503      3506      3507      3504      3503      3506      3508
      3504      3503      3506      3509      3505      3503      3506      3507
      3505      3503      3506      3508      3505      3503      3506      3509
      3510      3513      3516      3517      3510      3513      3516      3518
      3510      3513      3516      3519      3511      3510      3513      3514
      3511      3510      3513      3515      3511      3510      3513      3516
      3512      3510      3513      3514      3512      3510      3513      3515
      3512      3510      3513      3516      3513      3516      3519      3520
      3513      3516      3519      3521      3513      3516      3519      3522
      3514      3513      3516      3517      3514      3513      3516      3518
      3514      3513      3516      3519      3515      3513      3516      3517
      3515      3513      3516      3518      3515      3513      3516      3519
      3516      3519      3522      3523      3516      3519      3522      3524
      3516      3519      3522      3525      3517      3516      3519      3520
      3517      3516      3519      3521      3517      3516      3519      3522
      3518      3516      3519      3520      3518      3516      3519      3521
      3518      3516      3519      3522      3519      3522      3525      3526
      3519      3522      3525      3527      3519      3522      3525      3528
      3520      3519      3522      3523      3520      3519      3522      3524
      3520      3519      3522      3525      3521      3519      3522      3523
      3521      3519      3522      3524      3521      3519      3522      3525
      3522      3525      3528      3529      3522      3525      3528      3530
      3522      3525      3528      3531      3523      3522      3525      3526
      3523      3522      3525      3527      3523      3522      3525      3528
      3524      3522      3525      3526      3524      3522      3525      3527
      3524      3522      3525      3528      3525      3528      3531      3532
      3525      3528      3531      3533      3525      3528      3531      3534
      3526      3525      3528      3529      3526      3525      3528      3530
      3526      3525      3528      3531      3527      3525      3528      3529
      3527      3525      3528      3530      3527      3525      3528      3531
      3528      3531      3534      3535      3528      3531      3534      3536
      3528      3531      3534      3537      3529      3528      3531      3532
      3529      3528      3531      3533      3529      3528      3531      3534
      3530      3528      3531      3532      3530      3528      3531      3533
      3530      3528      3531      3534      3531      3534      3537      3538
      3531      3534      3537      3539      3531      3534      3537      3540
      3532      3531      3534      3535      3532      3531      3534      3536
      3532      3531      3534      3537      3533      3531      3534      3535
      3533      3531      3534      3536      3533      3531      3534      3537
      3534      3537      3540      3541      3534      3537      3540      3542
      3534      3537      3540      3543      3535      3534      3537      3538
      3535      3534      3537      3539      3535      3534      3537      3540
      3536      3534      3537      3538      3536      3534      3537      3539
      3536      3534      3537      3540      3537      3540      3543      3544
      3537      3540      3543      3545      3537      3540      3543      3546
      3538      3537      3540      3541      3538      3537      3540      3542
      3538      3537      3540      3543      3539      3537      3540      3541
      3539      3537      3540      3542      3539      3537      3540      3543
      3540      3543      3546      3547      3540      3543      3546      3548
      3540      3543      3546      3549      3541      3540      3543      3544
      3541      3540      3543      3545      3541      3540      3543      3546
      3542      3540      3543      3544      3542      3540      3543      3545
      3542      3540      3543      3546      3543      3546      3549      3550
      3543      3546      3549      3551      3543      3546      3549      3552
      3544      3543      3546      3547      3544      3543      3546      3548
      3544      3543      3546      3549      3545      3543      3546      3547
      3545      3543      3546      3548      3545      3543      3546      3549
      3547      3546      3549      3550      3547      3546      3549      3551
      3547      3546      3549      3552      3548      3546      3549      3550
      3548      3546      3549      3551      3548      3546      3549      3552
      3553      3554      3569      3570      3553      3554      3569      3571
      3553      3554      3569      3575      3554      3553      3557      3558
      3554      3553      3557      3559      3554      3553      3557      3560
      3554      3553      3561      3562      3554      3553      3561      3563
      3554      3553      3561      3564      3554      3553      3565      3566
      3554      3553      3565      3567      3554      3553      3565      3568
      3554      3569      3575      3572      3555      3554      3553      3557
      3555      3554      3553      3561      3555      3554      3553      3565
      3555      3554      3569      3570      3555      3554      3569      3571
      3555      3554      3569      3575      3556      3554      3553      3557
      3556      3554      3553      3561      3556      3554      3553      3565
      3556      3554      3569      3570      3556      3554      3569      3571
      3556      3554      3569      3575      3557      3553      3554      3569
      3557      3553      3561      3562      3557      3553      3561      3563
      3557      3553      3561      3564      3557      3553      3565      3566
      3557      3553      3565      3567      3557      3553      3565      3568
      3558      3557      3553      3561      3558      3557      3553      3565
      3559      3557      3553      3561      3559      3557      3553      3565
      3560      3557      3553      3561      3560      3557      3553      3565
      3561      3553      3554      3569      3561      3553      3565      3566
      3561      3553      3565      3567      3561      3553      3565      3568
      3562      3561      3553      3565      3563      3561      3553      3565
      3564      3561      3553      3565      3565      3553      3554      3569
      3569      3575      3572      3573      3569      3575      3572      3574
      3569      3575      3572      3576      3570      3569      3575      3572
      3571      3569      3575      3572      3572      3576      3577      3578
      3572      3576      3577      3579      3572      3576      3577      3580
      3573      3572      3576      3577      3574      3572      3576      3577
      3575      3572      3576      3577      3576      3577      3580      3581
      3576      3577      3580      3582      3576      3577      3580      3588
      3577      3580      3582      3583      3577      3580      3588      3589
      3577      3580      3588      3590      3577      3580      3588      3591
      3578      3577      3580      3581      3578      3577      3580      3582
      3578      3577      3580      3588      3579      3577      3580      3581
      3579      3577      3580      3582      3579      3577      3580      3588
      3580      3582      3583      3584      3580      3582      3583      3585
      3580      3588      3591      3592      3581      3580      3582      3583
      3581      3580      3588      3589      3581      3580      3588      3590
      3581      3580      3588      3591      3582      3580      3588      3589
      3582      3580      3588      3590      3582      3580      3588      3591
      3582      3583      3585      3586      3582      3583      3585      3587
      3582      3583      3585      3597      3583      3582      3580      3588
      3583      3585      3597      3598      3583      3585      3597      3599
      3583      3585      3597      3600      3584      3583      3585      3586
      3584      3583      3585      3587      3584      3583      3585      3597
      3585      3597      3600      3601      3585      3597      3600      3602
      3585      3597      3600      3603      3586      3585      3597      3598
      3586      3585      3597      3599      3586      3585      3597      3600
      3587      3585      3597      3598      3587      3585      3597      3599
      3587      3585      3597      3600      3588      3591      3592      3593
      3588      3591      3592      3594      3589      3588      3591      3592
      3590      3588      3591      3592      3591      3592      3594      3595
      3591      3592      3594      3596      3591      3592      3594      3644
      3592      3594      3644      3645      3592      3594      3644      3646
      3592      3594      3644      3647      3593      3592      3594      3595
      3593      3592      3594      3596      3593      3592      3594      3644
      3594      3644      3647      3648      3594      3644      3647      3649
      3594      3644      3647      3650      3595      3594      3644      3645
      3595      3594      3644      3646      3595      3594      3644      3647
      3596      3594      3644      3645      3596      3594      3644      3646
      3596      3594      3644      3647      3597      3600      3603      3604
      3597      3600      3603      3605      3597      3600      3603      3606
      3598      3597      3600      3601      3598      3597      3600      3602
      3598      3597      3600      3603      3599      3597      3600      3601
      3599      3597      3600      3602      3599      3597      3600      3603
      3600      3603      3606      3607      3600      3603      3606      3608
      3600      3603      3606      3609      3601      3600      3603      3604
      3601      3600      3603      3605      3601      3600      3603      3606
      3602      3600      3603      3604      3602      3600      3603      3605
      3602      3600      3603      3606      3603      3606      3609      3610
      3603      3606      3609      3611      3603      3606      3609      3612
      3604      3603      3606      3607      3604      3603      3606      3608
      3604      3603      3606      3609      3605      3603      3606      3607
      3605      3603      3606      3608      3605      3603      3606      3609
      3606      3609      3612      3613      3606      3609      3612      3614
      3606      3609      3612      3615      3607      3606      3609      3610
      3607      3606      3609      3611      3607      3606      3609      3612
      3608      3606      3609      3610      3608      3606      3609      3611
      3608      3606      3609      3612      3609      3612      3615      3616
      3609      3612      3615      3617      3610      3609      3612      3613
      3610      3609      3612      3614      3610      3609      3612      3615
      3611      3609      3612      3613      3611      3609      3612      3614
      3611      3609      3612      3615      3612      3615      3617      3618
      3612      3615      3617      3619      3613      3612      3615      3616
      3613      3612      3615      3617      3614      3612      3615      3616
      3614      3612      3615      3617      3615      3617      3619      3620
      3615      3617      3619      3621      3615      3617      3619      3622
      3616      3615      3617      3618      3616      3615      3617      3619
      3617      3619      3622      3623      3617      3619      3622      3624
      3617      3619      3622      3625      3618      3617      3619      3620
      3618      3617      3619      3621      3618      3617      3619      3622
      3619      3622      3625      3626      3619      3622      3625      3627
      3619      3622      3625      3628      3620      3619      3622      3623
      3620      3619      3622      3624      3620      3619      3622      3625
      3621      3619      3622      3623      3621      3619      3622      3624
      3621      3619      3622      3625      3622      3625      3628      3629
      3622      3625      3628      3630      3622      3625      3628      3631
      3623      3622      3625      3626      3623      3622      3625      3627
      3623      3622      3625      3628      3624      3622      3625      3626
      3624      3622      3625      3627      3624      3622      3625      3628
      3625      3628      3631      3632      3625      3628      3631      3633
      3625      3628      3631      3634      3626      3625      3628      3629
      3626      3625      3628      3630      3626      3625      3628      3631
      3627      3625      3628      3629      3627      3625      3628      3630
      3627      3625      3628      3631      3628      3631      3634      3635
      3628      3631      3634      3636      3628      3631      3634      3637
      3629      3628      3631      3632      3629      3628      3631      3633
      3629      3628      3631      3634      3630      3628      3631      3632
      3630      3628      3631      3633      3630      3628      3631      3634
      3631      3634      3637      3638      3631      3634      3637      3639
      3631      3634      3637      3640      3632      3631      3634      3635
      3632      3631      3634      3636      3632      3631      3634      3637
      3633      3631      3634      3635      3633      3631      3634      3636
      3633      3631      3634      3637      3634      3637      3640      3641
      3634      3637      3640      3642      3634      3637      3640      3643
      3635      3634      3637      3638      3635      3634      3637      3639
      3635      3634      3637      3640      3636      3634      3637      3638
      3636      3634      3637      3639      3636      3634      3637      3640
      3638      3637      3640      3641      3638      3637      3640      3642
      3638      3637      3640      3643      3639      3637      3640      3641
      3639      3637      3640      3642      3639      3637      3640      3643
      3644      3647      3650      3651      3644      3647      3650      3652
      3644      3647      3650      3653      3645      3644      3647      3648
      3645      3644      3647      3649      3645      3644      3647      3650
      3646      3644      3647      3648      3646      3644      3647      3649
      3646      3644      3647      3650      3647      3650      3653      3654
      3647      3650      3653      3655      3647      3650      3653      3656
      3648      3647      3650      3651      3648      3647      3650      3652
      3648      3647      3650      3653      3649      3647      3650      3651
      3649      3647      3650      3652      3649      3647      3650      3653
      3650      3653      3656      3657      3650      3653      3656      3658
      3650      3653      3656      3659      3651      3650      3653      3654
      3651      3650      3653      3655      3651      3650      3653      3656
      3652      3650      3653      3654      3652      3650      3653      3655
      3652      3650      3653      3656      3653      3656      3659      3660
      3653      3656      3659      3661      3653      3656      3659      3662
      3654      3653      3656      3657      3654      3653      3656      3658
      3654      3653      3656      3659      3655      3653      3656      3657
      3655      3653      3656      3658      3655      3653      3656      3659
      3656      3659      3662      3663      3656      3659      3662      3664
      3656      3659      3662      3665      3657      3656      3659      3660
      3657      3656      3659      3661      3657      3656      3659      3662
      3658      3656      3659      3660      3658      3656      3659      3661
      3658      3656      3659      3662      3659      3662      3665      3666
      3659      3662      3665      3667      3659      3662      3665      3668
      3660      3659      3662      3663      3660      3659      3662      3664
      3660      3659      3662      3665      3661      3659      3662      3663
      3661      3659      3662      3664      3661      3659      3662      3665
      3662      3665      3668      3669      3662      3665      3668      3670
      3662      3665      3668      3671      3663      3662      3665      3666
      3663      3662      3665      3667      3663      3662      3665      3668
      3664      3662      3665      3666      3664      3662      3665      3667
      3664      3662      3665      3668      3665      3668      3671      3672
      3665      3668      3671      3673      3665      3668      3671      3674
      3666      3665      3668      3669      3666      3665      3668      3670
      3666      3665      3668      3671      3667      3665      3668      3669
      3667      3665      3668      3670      3667      3665      3668      3671
      3668      3671      3674      3675      3668      3671      3674      3676
      3668      3671      3674      3677      3669      3668      3671      3672
      3669      3668      3671      3673      3669      3668      3671      3674
      3670      3668      3671      3672      3670      3668      3671      3673
      3670      3668      3671      3674      3671      3674      3677      3678
      3671      3674      3677      3679      3671      3674      3677      3680
      3672      3671      3674      3675      3672      3671      3674      3676
      3672      3671      3674      3677      3673      3671      3674      3675
      3673      3671      3674      3676      3673      3671      3674      3677
      3674      3677      3680      3681      3674      3677      3680      3682
      3674      3677      3680      3683      3675      3674      3677      3678
      3675      3674      3677      3679      3675      3674      3677      3680
      3676      3674      3677      3678      3676      3674      3677      3679
      3676      3674      3677      3680      3677      3680      3683      3684
      3677      3680      3683      3685      3677      3680      3683      3686
      3678      3677      3680      3681      3678      3677      3680      3682
      3678      3677      3680      3683      3679      3677      3680      3681
      3679      3677      3680      3682      3679      3677      3680      3683
      3681      3680      3683      3684      3681      3680      3683      3685
      3681      3680      3683      3686      3682      3680      3683      3684
      3682      3680      3683      3685      3682      3680      3683      3686
      3687      3688      3703      3704      3687      3688      3703      3705
      3687      3688      3703      3709      3688      3687      3691      3692
      3688      3687      3691      3693      3688      3687      3691      3694
      3688      3687      3695      3696      3688      3687      3695      3697
      3688      3687      3695      3698      3688      3687      3699      3700
      3688      3687      3699      3701      3688      3687      3699      3702
      3688      3703      3709      3706      3689      3688      3687      3691
      3689      3688      3687      3695      3689      3688      3687      3699
      3689      3688      3703      3704      3689      3688      3703      3705
      3689      3688      3703      3709      3690      3688      3687      3691
      3690      3688      3687      3695      3690      3688      3687      3699
      3690      3688      3703      3704      3690      3688      3703      3705
      3690      3688      3703      3709      3691      3687      3688      3703
      3691      3687      3695      3696      3691      3687      3695      3697
      3691      3687      3695      3698      3691      3687      3699      3700
      3691      3687      3699      3701      3691      3687      3699      3702
      3692      3691      3687      3695      3692      3691      3687      3699
      3693      3691      3687      3695      3693      3691      3687      3699
      3694      3691      3687      3695      3694      3691      3687      3699
      3695      3687      3688      3703      3695      3687      3699      3700
      3695      3687      3699      3701      3695      3687      3699      3702
      3696      3695      3687      3699      3697      3695      3687      3699
      3698      3695      3687      3699      3699      3687      3688      3703
      3703      3709      3706      3707      3703      3709      3706      3708
      3703      3709      3706      3710      3704      3703      3709      3706
      3705      3703      3709      3706      3706      3710      3711      3712
      3706      3710      3711      3713      3706      3710      3711      3714
      3707      3706      3710      3711      3708      3706      3710      3711
      3709      3706      3710      3711      3710      3711      3714      3715
      3710      3711      3714      3716      3710      3711      3714      3722
      3711      3714      3716      3717      3711      3714      3722      3723
      3711      3714      3722      3724      3711      3714      3722      3725
      3712      3711      3714      3715      3712      3711      3714      3716
      3712      3711      3714      3722      3713      3711      3714      3715
      3713      3711      3714      3716      3713      3711      3714      3722
      3714      3716      3717      3718      3714      3716      3717      3719
      3714      3722      3725      3726      3715      3714      3716      3717
      3715      3714      3722      3723      3715      3714      3722      3724
      3715      3714      3722      3725      3716      3714      3722      3723
      3716      3714      3722      3724      3716      3714      3722      3725
      3716      3717      3719      3720      3716      3717      3719      3721
      3716      3717      3719      3731      3717      3716      3714      3722
      3717      3719      3731      3732      3717      3719      3731      3733
      3717      3719      3731      3734      3718      3717      3719      3720
      3718      3717      3719      3721      3718      3717      3719      3731
      3719      3731      3734      3735      3719      3731      3734      3736
      3719      3731      3734      3737      3720      3719      3731      3732
      3720      3719      3731      3733      3720      3719      3731      3734
      3721      3719      3731      3732      3721      3719      3731      3733
      3721      3719      3731      3734      3722      3725      3726      3727
      3722      3725      3726      3728      3723      3722      3725      3726
      3724      3722      3725      3726      3725      3726      3728      3729
      3725      3726      3728      3730      3725      3726      3728      3778
      3726      3728      3778      3779      3726      3728      3778      3780
      3726      3728      3778      3781      3727      3726      3728      3729
      3727      3726      3728      3730      3727      3726      3728      3778
      3728      3778      3781      3782      3728      3778      3781      3783
      3728      3778      3781      3784      3729      3728      3778      3779
      3729      3728      3778      3780      3729      3728      3778      3781
      3730      3728      3778      3779      3730      3728      3778      3780
      3730      3728      3778      3781      3731      3734      3737      3738
      3731      3734      3737      3739      3731      3734      3737      3740
      3732      3731      3734      3735      3732      3731      3734      3736
      3732      3731      3734      3737      3733      3731      3734      3735
      3733      3731      3734      3736      3733      3731      3734      3737
      3734      3737      3740      3741      3734      3737      3740      3742
      3734      3737      3740      3743      3735      3734      3737      3738
      3735      3734      3737      3739      3735      3734      3737      3740
      3736      3734      3737      3738      3736      3734      3737      3739
      3736      3734      3737      3740      3737      3740      3743      3744
      3737      3740      3743      3745      3737      3740      3743      3746
      3738      3737      3740      3741      3738      3737      3740      3742
      3738      3737      3740      3743      3739      3737      3740      3741
      3739      3737      3740      3742      3739      3737      3740      3743
      3740      3743      3746      3747      3740      3743      3746      3748
      3740      3743      3746      3749      3741      3740      3743      3744
      3741      3740      3743      3745      3741      3740      3743      3746
      3742      3740      3743      3744      3742      3740      3743      3745
      3742      3740      3743      3746      3743      3746      3749      3750
      3743      3746      3749      3751      3744      3743      3746      3747
      3744      3743      3746      3748      3744      3743      3746      3749
      3745      3743      3746      3747      3745      3743      3746      3748
      3745      3743      3746      3749      3746      3749      3751      3752
      3746      3749      3751      3753      3747      3746      3749      3750
      3747      3746      3749      3751      3748      3746      3749      3750
      3748      3746      3749      3751      3749      3751      3753      3754
      3749      3751      3753      3755      3749      3751      3753      3756
      3750      3749      3751      3752      3750      3749      3751      3753
      3751      3753      3756      3757      3751      3753      3756      3758
      3751      3753      3756      3759      3752      3751      3753      3754
      3752      3751      3753      3755      3752      3751      3753      3756
      3753      3756      3759      3760      3753      3756      3759      3761
      3753      3756      3759      3762      3754      3753      3756      3757
      3754      3753      3756      3758      3754      3753      3756      3759
      3755      3753      3756      3757      3755      3753      3756      3758
      3755      3753      3756      3759      3756      3759      3762      3763
      3756      3759      3762      3764      3756      3759      3762      3765
      3757      3756      3759      3760      3757      3756      3759      3761
      3757      3756      3759      3762      3758      3756      3759      3760
      3758      3756      3759      3761      3758      3756      3759      3762
      3759      3762      3765      3766      3759      3762      3765      3767
      3759      3762      3765      3768      3760      3759      3762      3763
      3760      3759      3762      3764      3760      3759      3762      3765
      3761      3759      3762      3763      3761      3759      3762      3764
      3761      3759      3762      3765      3762      3765      3768      3769
      3762      3765      3768      3770      3762      3765      3768      3771
      3763      3762      3765      3766      3763      3762      3765      3767
      3763      3762      3765      3768      3764      3762      3765      3766
      3764      3762      3765      3767      3764      3762      3765      3768
      3765      3768      3771      3772      3765      3768      3771      3773
      3765      3768      3771      3774      3766      3765      3768      3769
      3766      3765      3768      3770      3766      3765      3768      3771
      3767      3765      3768      3769      3767      3765      3768      3770
      3767      3765      3768      3771      3768      3771      3774      3775
      3768      3771      3774      3776      3768      3771      3774      3777
      3769      3768      3771      3772      3769      3768      3771      3773
      3769      3768      3771      3774      3770      3768      3771      3772
      3770      3768      3771      3773      3770      3768      3771      3774
      3772      3771      3774      3775      3772      3771      3774      3776
      3772      3771      3774      3777      3773      3771      3774      3775
      3773      3771      3774      3776      3773      3771      3774      3777
      3778      3781      3784      3785      3778      3781      3784      3786
      3778      3781      3784      3787      3779      3778      3781      3782
      3779      3778      3781      3783      3779      3778      3781      3784
      3780      3778      3781      3782      3780      3778      3781      3783
      3780      3778      3781      3784      3781      3784      3787      3788
      3781      3784      3787      3789      3781      3784      3787      3790
      3782      3781      3784      3785      3782      3781      3784      3786
      3782      3781      3784      3787      3783      3781      3784      3785
      3783      3781      3784      3786      3783      3781      3784      3787
      3784      3787      3790      3791      3784      3787      3790      3792
      3784      3787      3790      3793      3785      3784      3787      3788
      3785      3784      3787      3789      3785      3784      3787      3790
      3786      3784      3787      3788      3786      3784      3787      3789
      3786      3784      3787      3790      3787      3790      3793      3794
      3787      3790      3793      3795      3787      3790      3793      3796
      3788      3787      3790      3791      3788      3787      3790      3792
      3788      3787      3790      3793      3789      3787      3790      3791
      3789      3787      3790      3792      3789      3787      3790      3793
      3790      3793      3796      3797      3790      3793      3796      3798
      3790      3793      3796      3799      3791      3790      3793      3794
      3791      3790      3793      3795      3791      3790      3793      3796
      3792      3790      3793      3794      3792      3790      3793      3795
      3792      3790      3793      3796      3793      3796      3799      3800
      3793      3796      3799      3801      3793      3796      3799      3802
      3794      3793      3796      3797      3794      3793      3796      3798
      3794      3793      3796      3799      3795      3793      3796      3797
      3795      3793      3796      3798      3795      3793      3796      3799
      3796      3799      3802      3803      3796      3799      3802      3804
      3796      3799      3802      3805      3797      3796      3799      3800
      3797      3796      3799      3801      3797      3796      3799      3802
      3798      3796      3799      3800      3798      3796      3799      3801
      3798      3796      3799      3802      3799      3802      3805      3806
      3799      3802      3805      3807      3799      3802      3805      3808
      3800      3799      3802      3803      3800      3799      3802      3804
      3800      3799      3802      3805      3801      3799      3802      3803
      3801      3799      3802      3804      3801      3799      3802      3805
      3802      3805      3808      3809      3802      3805      3808      3810
      3802      3805      3808      3811      3803      3802      3805      3806
      3803      3802      3805      3807      3803      3802      3805      3808
      3804      3802      3805      3806      3804      3802      3805      3807
      3804      3802      3805      3808      3805      3808      3811      3812
      3805      3808      3811      3813      3805      3808      3811      3814
      3806      3805      3808      3809      3806      3805      3808      3810
      3806      3805      3808      3811      3807      3805      3808      3809
      3807      3805      3808      3810      3807      3805      3808      3811
      3808      3811      3814      3815      3808      3811      3814      3816
      3808      3811      3814      3817      3809      3808      3811      3812
      3809      3808      3811      3813      3809      3808      3811      3814
      3810      3808      3811      3812      3810      3808      3811      3813
      3810      3808      3811      3814      3811      3814      3817      3818
      3811      3814      3817      3819      3811      3814      3817      3820
      3812      3811      3814      3815      3812      3811      3814      3816
      3812      3811      3814      3817      3813      3811      3814      3815
      3813      3811      3814      3816      3813      3811      3814      3817
      3815      3814      3817      3818      3815      3814      3817      3819
      3815      3814      3817      3820      3816      3814      3817      3818
      3816      3814      3817      3819      3816      3814      3817      3820
      3821      3822      3837      3838      3821      3822      3837      3839
      3821      3822      3837      3843      3822      3821      3825      3826
      3822      3821      3825      3827      3822      3821      3825      3828
      3822      3821      3829      3830      3822      3821      3829      3831
      3822      3821      3829      3832      3822      3821      3833      3834
      3822      3821      3833      3835      3822      3821      3833      3836
      3822      3837      3843      3840      3823      3822      3821      3825
      3823      3822      3821      3829      3823      3822      3821      3833
      3823      3822      3837      3838      3823      3822      3837      3839
      3823      3822      3837      3843      3824      3822      3821      3825
      3824      3822      3821      3829      3824      3822      3821      3833
      3824      3822      3837      3838      3824      3822      3837      3839
      3824      3822      3837      3843      3825      3821      3822      3837
      3825      3821      3829      3830      3825      3821      3829      3831
      3825      3821      3829      3832      3825      3821      3833      3834
      3825      3821      3833      3835      3825      3821      3833      3836
      3826      3825      3821      3829      3826      3825      3821      3833
      3827      3825      3821      3829      3827      3825      3821      3833
      3828      3825      3821      3829      3828      3825      3821      3833
      3829      3821      3822      3837      3829      3821      3833      3834
      3829      3821      3833      3835      3829      3821      3833      3836
      3830      3829      3821      3833      3831      3829      3821      3833
      3832      3829      3821      3833      3833      3821      3822      3837
      3837      3843      3840      3841      3837      3843      3840      3842
      3837      3843      3840      3844      3838      3837      3843      3840
      3839      3837      3843      3840      3840      3844      3845      3846
      3840      3844      3845      3847      3840      3844      3845      3848
      3841      3840      3844      3845      3842      3840      3844      3845
      3843      3840      3844      3845      3844      3845      3848      3849
      3844      3845      3848      3850      3844      3845      3848      3856
      3845      3848      3850      3851      3845      3848      3856      3857
      3845      3848      3856      3858      3845      3848      3856      3859
      3846      3845      3848      3849      3846      3845      3848      3850
      3846      3845      3848      3856      3847      3845      3848      3849
      3847      3845      3848      3850      3847      3845      3848      3856
      3848      3850      3851      3852      3848      3850      3851      3853
      3848      3856      3859      3860      3849      3848      3850      3851
      3849      3848      3856      3857      3849      3848      3856      3858
      3849      3848      3856      3859      3850      3848      3856      3857
      3850      3848      3856      3858      3850      3848      3856      3859
      3850      3851      3853      3854      3850      3851      3853      3855
      3850      3851      3853      3865      3851      3850      3848      3856
      3851      3853      3865      3866      3851      3853      3865      3867
      3851      3853      3865      3868      3852      3851      3853      3854
      3852      3851      3853      3855      3852      3851      3853      3865
      3853      3865      3868      3869      3853      3865      3868      3870
      3853      3865      3868      3871      3854      3853      3865      3866
      3854      3853      3865      3867      3854      3853      3865      3868
      3855      3853      3865      3866      3855      3853      3865      3867
      3855      3853      3865      3868      3856      3859      3860      3861
      3856      3859      3860      3862      3857      3856      3859      3860
      3858      3856      3859      3860      3859      3860      3862      3863
      3859      3860      3862      3864      3859      3860      3862      3912
      3860      3862      3912      3913      3860      3862      3912      3914
      3860      3862      3912      3915      3861      3860      3862      3863
      3861      3860      3862      3864      3861      3860      3862      3912
      3862      3912      3915      3916      3862      3912      3915      3917
      3862      3912      3915      3918      3863      3862      3912      3913
      3863      3862      3912      3914      3863      3862      3912      3915
      3864      3862      3912      3913      3864      3862      3912      3914
      3864      3862      3912      3915      3865      3868      3871      3872
      3865      3868      3871      3873      3865      3868      3871      3874
      3866      3865      3868      3869      3866      3865      3868      3870
      3866      3865      3868      3871      3867      3865      3868      3869
      3867      3865      3868      3870      3867      3865      3868      3871
      3868      3871      3874      3875      3868      3871      3874      3876
      3868      3871      3874      3877      3869      3868      3871      3872
      3869      3868      3871      3873      3869      3868      3871      3874
      3870      3868      3871      3872      3870      3868      3871      3873
      3870      3868      3871      3874      3871      3874      3877      3878
      3871      3874      3877      3879      3871      3874      3877      3880
      3872      3871      3874      3875      3872      3871      3874      3876
      3872      3871      3874      3877      3873      3871      3874      3875
      3873      3871      3874      3876      3873      3871      3874      3877
      3874      3877      3880      3881      3874      3877      3880      3882
      3874      3877      3880      3883      3875      3874      3877      3878
      3875      3874      3877      3879      3875      3874      3877      3880
      3876      3874      3877      3878      3876      3874      3877      3879
      3876      3874      3877      3880      3877      3880      3883      3884
      3877      3880      3883      3885      3878      3877      3880      3881
      3878      3877      3880      3882      3878      3877      3880      3883
      3879      3877      3880      3881      3879      3877      3880      3882
      3879      3877      3880      3883      3880      3883      3885      3886
      3880      3883      3885      3887      3881      3880      3883      3884
      3881      3880      3883      3885      3882      3880      3883      3884
      3882      3880      3883      3885      3883      3885      3887      3888
      3883      3885      3887      3889      3883      3885      3887      3890
      3884      3883      3885      3886      3884      3883      3885      3887
      3885      3887      3890      3891      3885      3887      3890      3892
      3885      3887      3890      3893      3886      3885      3887      3888
      3886      3885      3887      3889      3886      3885      3887      3890
      3887      3890      3893      3894      3887      3890      3893      3895
      3887      3890      3893      3896      3888      3887      3890      3891
      3888      3887      3890      3892      3888      3887      3890      3893
      3889      3887      3890      3891      3889      3887      3890      3892
      3889      3887      3890      3893      3890      3893      3896      3897
      3890      3893      3896      3898      3890      3893      3896      3899
      3891      3890      3893      3894      3891      3890      3893      3895
      3891      3890      3893      3896      3892      3890      3893      3894
      3892      3890      3893      3895      3892      3890      3893      3896
      3893      3896      3899      3900      3893      3896      3899      3901
      3893      3896      3899      3902      3894      3893      3896      3897
      3894      3893      3896      3898      3894      3893      3896      3899
      3895      3893      3896      3897      3895      3893      3896      3898
      3895      3893      3896      3899      3896      3899      3902      3903
      3896      3899      3902      3904      3896      3899      3902      3905
      3897      3896      3899      3900      3897      3896      3899      3901
      3897      3896      3899      3902      3898      3896      3899      3900
      3898      3896      3899      3901      3898      3896      3899      3902
      3899      3902      3905      3906      3899      3902      3905      3907
      3899      3902      3905      3908      3900      3899      3902      3903
      3900      3899      3902      3904      3900      3899      3902      3905
      3901      3899      3902      3903      3901      3899      3902      3904
      3901      3899      3902      3905      3902      3905      3908      3909
      3902      3905      3908      3910      3902      3905      3908      3911
      3903      3902      3905      3906      3903      3902      3905      3907
      3903      3902      3905      3908      3904      3902      3905      3906
      3904      3902      3905      3907      3904      3902      3905      3908
      3906      3905      3908      3909      3906      3905      3908      3910
      3906      3905      3908      3911      3907      3905      3908      3909
      3907      3905      3908      3910      3907      3905      3908      3911
      3912      3915      3918      3919      3912      3915      3918      3920
      3912      3915      3918      3921      3913      3912      3915      3916
      3913      3912      3915      3917      3913      3912      3915      3918
      3914      3912      3915      3916      3914      3912      3915      3917
      3914      3912      3915      3918      3915      3918      3921      3922
      3915      3918      3921      3923      3915      3918      3921      3924
      3916      3915      3918      3919      3916      3915      3918      3920
      3916      3915      3918      3921      3917      3915      3918      3919
      3917      3915      3918      3920      3917      3915      3918      3921
      3918      3921      3924      3925      3918      3921      3924      3926
      3918      3921      3924      3927      3919      3918      3921      3922
      3919      3918      3921      3923      3919      3918      3921      3924
      3920      3918      3921      3922      3920      3918      3921      3923
      3920      3918      3921      3924      3921      3924      3927      3928
      3921      3924      3927      3929      3921      3924      3927      3930
      3922      3921      3924      3925      3922      3921      3924      3926
      3922      3921      3924      3927      3923      3921      3924      3925
      3923      3921      3924      3926      3923      3921      3924      3927
      3924      3927      3930      3931      3924      3927      3930      3932
      3924      3927      3930      3933      3925      3924      3927      3928
      3925      3924      3927      3929      3925      3924      3927      3930
      3926      3924      3927      3928      3926      3924      3927      3929
      3926      3924      3927      3930      3927      3930      3933      3934
      3927      3930      3933      3935      3927      3930      3933      3936
      3928      3927      3930      3931      3928      3927      3930      3932
      3928      3927      3930      3933      3929      3927      3930      3931
      3929      3927      3930      3932      3929      3927      3930      3933
      3930      3933      3936      3937      3930      3933      3936      3938
      3930      3933      3936      3939      3931      3930      3933      3934
      3931      3930      3933      3935      3931      3930      3933      3936
      3932      3930      3933      3934      3932      3930      3933      3935
      3932      3930      3933      3936      3933      3936      3939      3940
      3933      3936      3939      3941      3933      3936      3939      3942
      3934      3933      3936      3937      3934      3933      3936      3938
      3934      3933      3936      3939      3935      3933      3936      3937
      3935      3933      3936      3938      3935      3933      3936      3939
      3936      3939      3942      3943      3936      3939      3942      3944
      3936      3939      3942      3945      3937      3936      3939      3940
      3937      3936      3939      3941      3937      3936      3939      3942
      3938      3936      3939      3940      3938      3936      3939      3941
      3938      3936      3939      3942      3939      3942      3945      3946
      3939      3942      3945      3947      3939      3942      3945      3948
      3940      3939      3942      3943      3940      3939      3942      3944
      3940      3939      3942      3945      3941      3939      3942      3943
      3941      3939      3942      3944      3941      3939      3942      3945
      3942      3945      3948      3949      3942      3945      3948      3950
      3942      3945      3948      3951      3943      3942      3945      3946
      3943      3942      3945      3947      3943      3942      3945      3948
      3944      3942      3945      3946      3944      3942      3945      3947
      3944      3942      3945      3948      3945      3948      3951      3952
      3945      3948      3951      3953      3945      3948      3951      3954
      3946      3945      3948      3949      3946      3945      3948      3950
      3946      3945      3948      3951      3947      3945      3948      3949
      3947      3945      3948      3950      3947      3945      3948      3951
      3949      3948      3951      3952      3949      3948      3951      3953
      3949      3948      3951      3954      3950      3948      3951      3952
      3950      3948      3951      3953      3950      3948      3951      3954
      3955      3956      3971      3972      3955      3956      3971      3973
      3955      3956      3971      3977      3956      3955      3959      3960
      3956      3955      3959      3961      3956      3955      3959      3962
      3956      3955      3963      3964      3956      3955      3963      3965
      3956      3955      3963      3966      3956      3955      3967      3968
      3956      3955      3967      3969      3956      3955      3967      3970
      3956      3971      3977      3974      3957      3956      3955      3959
      3957      3956      3955      3963      3957      3956      3955      3967
      3957      3956      3971      3972      3957      3956      3971      3973
      3957      3956      3971      3977      3958      3956      3955      3959
      3958      3956      3955      3963      3958      3956      3955      3967
      3958      3956      3971      3972      3958      3956      3971      3973
      3958      3956      3971      3977      3959      3955      3956      3971
      3959      3955      3963      3964      3959      3955      3963      3965
      3959      3955      3963      3966      3959      3955      3967      3968
      3959      3955      3967      3969      3959      3955      3967      3970
      3960      3959      3955      3963      3960      3959      3955      3967
      3961      3959      3955      3963      3961      3959      3955      3967
      3962      3959      3955      3963      3962      3959      3955      3967
      3963      3955      3956      3971      3963      3955      3967      3968
      3963      3955      3967      3969      3963      3955      3967      3970
      3964      3963      3955      3967      3965      3963      3955      3967
      3966      3963      3955      3967      3967      3955      3956      3971
      3971      3977      3974      3975      3971      3977      3974      3976
      3971      3977      3974      3978      3972      3971      3977      3974
      3973      3971      3977      3974      3974      3978      3979      3980
      3974      3978      3979      3981      3974      3978      3979      3982
      3975      3974      3978      3979      3976      3974      3978      3979
      3977      3974      3978      3979      3978      3979      3982      3983
      3978      3979      3982      3984      3978      3979      3982      3990
      3979      3982      3984      3985      3979      3982      3990      3991
      3979      3982      3990      3992      3979      3982      3990      3993
      3980      3979      3982      3983      3980      3979      3982      3984
      3980      3979      3982      3990      3981      3979      3982      3983
      3981      3979      3982      3984      3981      3979      3982      3990
      3982      3984      3985      3986      3982      3984      3985      3987
      3982      3990      3993      3994      3983      3982      3984      3985
      3983      3982      3990      3991      3983      3982      3990      3992
      3983      3982      3990      3993      3984      3982      3990      3991
      3984      3982      3990      3992      3984      3982      3990      3993
      3984      3985      3987      3988      3984      3985      3987      3989
      3984      3985      3987      3999      3985      3984      3982      3990
      3985      3987      3999      4000      3985      3987      3999      4001
      3985      3987      3999      4002      3986      3985      3987      3988
      3986      3985      3987      3989      3986      3985      3987      3999
      3987      3999      4002      4003      3987      3999      4002      4004
      3987      3999      4002      4005      3988      3987      3999      4000
      3988      3987      3999      4001      3988      3987      3999      4002
      3989      3987      3999      4000      3989      3987      3999      4001
      3989      3987      3999      4002      3990      3993      3994      3995
      3990      3993      3994      3996      3991      3990      3993      3994
      3992      3990      3993      3994      3993      3994      3996      3997
      3993      3994      3996      3998      3993      3994      3996      4046
      3994      3996      4046      4047      3994      3996      4046      4048
      3994      3996      4046      4049      3995      3994      3996      3997
      3995      3994      3996      3998      3995      3994      3996      4046
      3996      4046      4049      4050      3996      4046      4049      4051
      3996      4046      4049      4052      3997      3996      4046      4047
      3997      3996      4046      4048      3997      3996      4046      4049
      3998      3996      4046      4047      3998      3996      4046      4048
      3998      3996      4046      4049      3999      4002      4005      4006
      3999      4002      4005      4007      3999      4002      4005      4008
      4000      3999      4002      4003      4000      3999      4002      4004
      4000      3999      4002      4005      4001      3999      4002      4003
      4001      3999      4002      4004      4001      3999      4002      4005
      4002      4005      4008      4009      4002      4005      4008      4010
      4002      4005      4008      4011      4003      4002      4005      4006
      4003      4002      4005      4007      4003      4002      4005      4008
      4004      4002      4005      4006      4004      4002      4005      4007
      4004      4002      4005      4008      4005      4008      4011      4012
      4005      4008      4011      4013      4005      4008      4011      4014
      4006      4005      4008      4009      4006      4005      4008      4010
      4006      4005      4008      4011      4007      4005      4008      4009
      4007      4005      4008      4010      4007      4005      4008      4011
      4008      4011      4014      4015      4008      4011      4014      4016
      4008      4011      4014      4017      4009      4008      4011      4012
      4009      4008      4011      4013      4009      4008      4011      4014
      4010      4008      4011      4012      4010      4008      4011      4013
      4010      4008      4011      4014      4011      4014      4017      4018
      4011      4014      4017      4019      4012      4011      4014      4015
      4012      4011      4014      4016      4012      4011      4014      4017
      4013      4011      4014      4015      4013      4011      4014      4016
      4013      4011      4014      4017      4014      4017      4019      4020
      4014      4017      4019      4021      4015      4014      4017      4018
      4015      4014      4017      4019      4016      4014      4017      4018
      4016      4014      4017      4019      4017      4019      4021      4022
      4017      4019      4021      4023      4017      4019      4021      4024
      4018      4017      4019      4020      4018      4017      4019      4021
      4019      4021      4024      4025      4019      4021      4024      4026
      4019      4021      4024      4027      4020      4019      4021      4022
      4020      4019      4021      4023      4020      4019      4021      4024
      4021      4024      4027      4028      4021      4024      4027      4029
      4021      4024      4027      4030      4022      4021      4024      4025
      4022      4021      4024      4026      4022      4021      4024      4027
      4023      4021      4024      4025      4023      4021      4024      4026
      4023      4021      4024      4027      4024      4027      4030      4031
      4024      4027      4030      4032      4024      4027      4030      4033
      4025      4024      4027      4028      4025      4024      4027      4029
      4025      4024      4027      4030      4026      4024      4027      4028
      4026      4024      4027      4029      4026      4024      4027      4030
      4027      4030      4033      4034      4027      4030      4033      4035
      4027      4030      4033      4036      4028      4027      4030      4031
      4028      4027      4030      4032      4028      4027      4030      4033
      4029      4027      4030      4031      4029      4027      4030      4032
      4029      4027      4030      4033      4030      4033      4036      4037
      4030      4033      4036      4038      4030      4033      4036      4039
      4031      4030      4033      4034      4031      4030      4033      4035
      4031      4030      4033      4036      4032      4030      4033      4034
      4032      4030      4033      4035      4032      4030      4033      4036
      4033      4036      4039      4040      4033      4036      4039      4041
      4033      4036      4039      4042      4034      4033      4036      4037
      4034      4033      4036      4038      4034      4033      4036      4039
      4035      4033      4036      4037      4035      4033      4036      4038
      4035      4033      4036      4039      4036      4039      4042      4043
      4036      4039      4042      4044      4036      4039      4042      4045
      4037      4036      4039      4040      4037      4036      4039      4041
      4037      4036      4039      4042      4038      4036      4039      4040
      4038      4036      4039      4041      4038      4036      4039      4042
      4040      4039      4042      4043      4040      4039      4042      4044
      4040      4039      4042      4045      4041      4039      4042      4043
      4041      4039      4042      4044      4041      4039      4042      4045
      4046      4049      4052      4053      4046      4049      4052      4054
      4046      4049      4052      4055      4047      4046      4049      4050
      4047      4046      4049      4051      4047      4046      4049      4052
      4048      4046      4049      4050      4048      4046      4049      4051
      4048      4046      4049      4052      4049      4052      4055      4056
      4049      4052      4055      4057      4049      4052      4055      4058
      4050      4049      4052      4053      4050      4049      4052      4054
      4050      4049      4052      4055      4051      4049      4052      4053
      4051      4049      4052      4054      4051      4049      4052      4055
      4052      4055      4058      4059      4052      4055      4058      4060
      4052      4055      4058      4061      4053      4052      4055      4056
      4053      4052      4055      4057      4053      4052      4055      4058
      4054      4052      4055      4056      4054      4052      4055      4057
      4054      4052      4055      4058      4055      4058      4061      4062
      4055      4058      4061      4063      4055      4058      4061      4064
      4056      4055      4058      4059      4056      4055      4058      4060
      4056      4055      4058      4061      4057      4055      4058      4059
      4057      4055      4058      4060      4057      4055      4058      4061
      4058      4061      4064      4065      4058      4061      4064      4066
      4058      4061      4064      4067      4059      4058      4061      4062
      4059      4058      4061      4063      4059      4058      4061      4064
      4060      4058      4061      4062      4060      4058      4061      4063
      4060      4058      4061      4064      4061      4064      4067      4068
      4061      4064      4067      4069      4061      4064      4067      4070
      4062      4061      4064      4065      4062      4061      4064      4066
      4062      4061      4064      4067      4063      4061      4064      4065
      4063      4061      4064      4066      4063      4061      4064      4067
      4064      4067      4070      4071      4064      4067      4070      4072
      4064      4067      4070      4073      4065      4064      4067      4068
      4065      4064      4067      4069      4065      4064      4067      4070
      4066      4064      4067      4068      4066      4064      4067      4069
      4066      4064      4067      4070      4067      4070      4073      4074
      4067      4070      4073      4075      4067      4070      4073      4076
      4068      4067      4070      4071      4068      4067      4070      4072
      4068      4067      4070      4073      4069      4067      4070      4071
      4069      4067      4070      4072      4069      4067      4070      4073
      4070      4073      4076      4077      4070      4073      4076      4078
      4070      4073      4076      4079      4071      4070      4073      4074
      4071      4070      4073      4075      4071      4070      4073      4076
      4072      4070      4073      4074      4072      4070      4073      4075
      4072      4070      4073      4076      4073      4076      4079      4080
      4073      4076      4079      4081      4073      4076      4079      4082
      4074      4073      4076      4077      4074      4073      4076      4078
      4074      4073      4076      4079      4075      4073      4076      4077
      4075      4073      4076      4078      4075      4073      4076      4079
      4076      4079      4082      4083      4076      4079      4082      4084
      4076      4079      4082      4085      4077      4076      4079      4080
      4077      4076      4079      4081      4077      4076      4079      4082
      4078      4076      4079      4080      4078      4076      4079      4081
      4078      4076      4079      4082      4079      4082      4085      4086
      4079      4082      4085      4087      4079      4082      4085      4088
      4080      4079      4082      4083      4080      4079      4082      4084
      4080      4079      4082      4085      4081      4079      4082      4083
      4081      4079      4082      4084      4081      4079      4082      4085
      4083      4082      4085      4086      4083      4082      4085      4087
      4083      4082      4085      4088      4084      4082      4085      4086
      4084      4082      4085      4087      4084      4082      4085      4088
      4089      4090      4105      4106      4089      4090      4105      4107
      4089      4090      4105      4111      4090      4089      4093      4094
      4090      4089      4093      4095      4090      4089      4093      4096
      4090      4089      4097      4098      4090      4089      4097      4099
      4090      4089      4097      4100      4090      4089      4101      4102
      4090      4089      4101      4103      4090      4089      4101      4104
      4090      4105      4111      4108      4091      4090      4089      4093
      4091      4090      4089      4097      4091      4090      4089      4101
      4091      4090      4105      4106      4091      4090      4105      4107
      4091      4090      4105      4111      4092      4090      4089      4093
      4092      4090      4089      4097      4092      4090      4089      4101
      4092      4090      4105      4106      4092      4090      4105      4107
      4092      4090      4105      4111      4093      4089      4090      4105
      4093      4089      4097      4098      4093      4089      4097      4099
      4093      4089      4097      4100      4093      4089      4101      4102
      4093      4089      4101      4103      4093      4089      4101      4104
      4094      4093      4089      4097      4094      4093      4089      4101
      4095      4093      4089      4097      4095      4093      4089      4101
      4096      4093      4089      4097      4096      4093      4089      4101
      4097      4089      4090      4105      4097      4089      4101      4102
      4097      4089      4101      4103      4097      4089      4101      4104
      4098      4097      4089      4101      4099      4097      4089      4101
      4100      4097      4089      4101      4101      4089      4090      4105
      4105      4111      4108      4109      4105      4111      4108      4110
      4105      4111      4108      4112      4106      4105      4111      4108
      4107      4105      4111      4108      4108      4112      4113      4114
      4108      4112      4113      4115      4108      4112      4113      4116
      4109      4108      4112      4113      4110      4108      4112      4113
      4111      4108      4112      4113      4112      4113      4116      4117
      4112      4113      4116      4118      4112      4113      4116      4124
      4113      4116      4118      4119      4113      4116      4124      4125
      4113      4116      4124      4126      4113      4116      4124      4127
      4114      4113      4116      4117      4114      4113      4116      4118
      4114      4113      4116      4124      4115      4113      4116      4117
      4115      4113      4116      4118      4115      4113      4116      4124
      4116      4118      4119      4120      4116      4118      4119      4121
      4116      4124      4127      4128      4117      4116      4118      4119
      4117      4116      4124      4125      4117      4116      4124      4126
      4117      4116      4124      4127      4118      4116      4124      4125
      4118      4116      4124      4126      4118      4116      4124      4127
      4118      4119      4121      4122      4118      4119      4121      4123
      4118      4119      4121      4133      4119      4118      4116      4124
      4119      4121      4133      4134      4119      4121      4133      4135
      4119      4121      4133      4136      4120      4119      4121      4122
      4120      4119      4121      4123      4120      4119      4121      4133
      4121      4133      4136      4137      4121      4133      4136      4138
      4121      4133      4136      4139      4122      4121      4133      4134
      4122      4121      4133      4135      4122      4121      4133      4136
      4123      4121      4133      4134      4123      4121      4133      4135
      4123      4121      4133      4136      4124      4127      4128      4129
      4124      4127      4128      4130      4125      4124      4127      4128
      4126      4124      4127      4128      4127      4128      4130      4131
      4127      4128      4130      4132      4127      4128      4130      4180
      4128      4130      4180      4181      4128      4130      4180      4182
      4128      4130      4180      4183      4129      4128      4130      4131
      4129      4128      4130      4132      4129      4128      4130      4180
      4130      4180      4183      4184      4130      4180      4183      4185
      4130      4180      4183      4186      4131      4130      4180      4181
      4131      4130      4180      4182      4131      4130      4180      4183
      4132      4130      4180      4181      4132      4130      4180      4182
      4132      4130      4180      4183      4133      4136      4139      4140
      4133      4136      4139      4141      4133      4136      4139      4142
      4134      4133      4136      4137      4134      4133      4136      4138
      4134      4133      4136      4139      4135      4133      4136      4137
      4135      4133      4136      4138      4135      4133      4136      4139
      4136      4139      4142      4143      4136      4139      4142      4144
      4136      4139      4142      4145      4137      4136      4139      4140
      4137      4136      4139      4141      4137      4136      4139      4142
      4138      4136      4139      4140      4138      4136      4139      4141
      4138      4136      4139      4142      4139      4142      4145      4146
      4139      4142      4145      4147      4139      4142      4145      4148
      4140      4139      4142      4143      4140      4139      4142      4144
      4140      4139      4142      4145      4141      4139      4142      4143
      4141      4139      4142      4144      4141      4139      4142      4145
      4142      4145      4148      4149      4142      4145      4148      4150
      4142      4145      4148      4151      4143      4142      4145      4146
      4143      4142      4145      4147      4143      4142      4145      4148
      4144      4142      4145      4146      4144      4142      4145      4147
      4144      4142      4145      4148      4145      4148      4151      4152
      4145      4148      4151      4153      4146      4145      4148      4149
      4146      4145      4148      4150      4146      4145      4148      4151
      4147      4145      4148      4149      4147      4145      4148      4150
      4147      4145      4148      4151      4148      4151      4153      4154
      4148      4151      4153      4155      4149      4148      4151      4152
      4149      4148      4151      4153      4150      4148      4151      4152
      4150      4148      4151      4153      4151      4153      4155      4156
      4151      4153      4155      4157      4151      4153      4155      4158
      4152      4151      4153      4154      4152      4151      4153      4155
      4153      4155      4158      4159      4153      4155      4158      4160
      4153      4155      4158      4161      4154      4153      4155      4156
      4154      4153      4155      4157      4154      4153      4155      4158
      4155      4158      4161      4162      4155      4158      4161      4163
      4155      4158      4161      4164      4156      4155      4158      4159
      4156      4155      4158      4160      4156      4155      4158      4161
      4157      4155      4158      4159      4157      4155      4158      4160
      4157      4155      4158      4161      4158      4161      4164      4165
      4158      4161      4164      4166      4158      4161      4164      4167
      4159      4158      4161      4162      4159      4158      4161      4163
      4159      4158      4161      4164      4160      4158      4161      4162
      4160      4158      4161      4163      4160      4158      4161      4164
      4161      4164      4167      4168      4161      4164      4167      4169
      4161      4164      4167      4170      4162      4161      4164      4165
      4162      4161      4164      4166      4162      4161      4164      4167
      4163      4161      4164      4165      4163      4161      4164      4166
      4163      4161      4164      4167      4164      4167      4170      4171
      4164      4167      4170      4172      4164      4167      4170      4173
      4165      4164      4167      4168      4165      4164      4167      4169
      4165      4164      4167      4170      4166      4164      4167      4168
      4166      4164      4167      4169      4166      4164      4167      4170
      4167      4170      4173      4174      4167      4170      4173      4175
      4167      4170      4173      4176      4168      4167      4170      4171
      4168      4167      4170      4172      4168      4167      4170      4173
      4169      4167      4170      4171      4169      4167      4170      4172
      4169      4167      4170      4173      4170      4173      4176      4177
      4170      4173      4176      4178      4170      4173      4176      4179
      4171      4170      4173      4174      4171      4170      4173      4175
      4171      4170      4173      4176      4172      4170      4173      4174
      4172      4170      4173      4175      4172      4170      4173      4176
      4174      4173      4176      4177      4174      4173      4176      4178
      4174      4173      4176      4179      4175      4173      4176      4177
      4175      4173      4176      4178      4175      4173      4176      4179
      4180      4183      4186      4187      4180      4183      4186      4188
      4180      4183      4186      4189      4181      4180      4183      4184
      4181      4180      4183      4185      4181      4180      4183      4186
      4182      4180      4183      4184      4182      4180      4183      4185
      4182      4180      4183      4186      4183      4186      4189      4190
      4183      4186      4189      4191      4183      4186      4189      4192
      4184      4183      4186      4187      4184      4183      4186      4188
      4184      4183      4186      4189      4185      4183      4186      4187
      4185      4183      4186      4188      4185      4183      4186      4189
      4186      4189      4192      4193      4186      4189      4192      4194
      4186      4189      4192      4195      4187      4186      4189      4190
      4187      4186      4189      4191      4187      4186      4189      4192
      4188      4186      4189      4190      4188      4186      4189      4191
      4188      4186      4189      4192      4189      4192      4195      4196
      4189      4192      4195      4197      4189      4192      4195      4198
      4190      4189      4192      4193      4190      4189      4192      4194
      4190      4189      4192      4195      4191      4189      4192      4193
      4191      4189      4192      4194      4191      4189      4192      4195
      4192      4195      4198      4199      4192      4195      4198      4200
      4192      4195      4198      4201      4193      4192      4195      4196
      4193      4192      4195      4197      4193      4192      4195      4198
      4194      4192      4195      4196      4194      4192      4195      4197
      4194      4192      4195      4198      4195      4198      4201      4202
      4195      4198      4201      4203      4195      4198      4201      4204
      4196      4195      4198      4199      4196      4195      4198      4200
      4196      4195      4198      4201      4197      4195      4198      4199
      4197      4195      4198      4200      4197      4195      4198      4201
      4198      4201      4204      4205      4198      4201      4204      4206
      4198      4201      4204      4207      4199      4198      4201      4202
      4199      4198      4201      4203      4199      4198      4201      4204
      4200      4198      4201      4202      4200      4198      4201      4203
      4200      4198      4201      4204      4201      4204      4207      4208
      4201      4204      4207      4209      4201      4204      4207      4210
      4202      4201      4204      4205      4202      4201      4204      4206
      4202      4201      4204      4207      4203      4201      4204      4205
      4203      4201      4204      4206      4203      4201      4204      4207
      4204      4207      4210      4211      4204      4207      4210      4212
      4204      4207      4210      4213      4205      4204      4207      4208
      4205      4204      4207      4209      4205      4204      4207      4210
      4206      4204      4207      4208      4206      4204      4207      4209
      4206      4204      4207      4210      4207      4210      4213      4214
      4207      4210      4213      4215      4207      4210      4213      4216
      4208      4207      4210      4211      4208      4207      4210      4212
      4208      4207      4210      4213      4209      4207      4210      4211
      4209      4207      4210      4212      4209      4207      4210      4213
      4210      4213      4216      4217      4210      4213      4216      4218
      4210      4213      4216      4219      4211      4210      4213      4214
      4211      4210      4213      4215      4211      4210      4213      4216
      4212      4210      4213      4214      4212      4210      4213      4215
      4212      4210      4213      4216      4213      4216      4219      4220
      4213      4216      4219      4221      4213      4216      4219      4222
      4214      4213      4216      4217      4214      4213      4216      4218
      4214      4213      4216      4219      4215      4213      4216      4217
      4215      4213      4216      4218      4215      4213      4216      4219
      4217      4216      4219      4220      4217      4216      4219      4221
      4217      4216      4219      4222      4218      4216      4219      4220
      4218      4216      4219      4221      4218      4216      4219      4222
      4223      4224      4239      4240      4223      4224      4239      4241
      4223      4224      4239      4245      4224      4223      4227      4228
      4224      4223      4227      4229      4224      4223      4227      4230
      4224      4223      4231      4232      4224      4223      4231      4233
      4224      4223      4231      4234      4224      4223      4235      4236
      4224      4223      4235      4237      4224      4223      4235      4238
      4224      4239      4245      4242      4225      4224      4223      4227
      4225      4224      4223      4231      4225      4224      4223      4235
      4225      4224      4239      4240      4225      4224      4239      4241
      4225      4224      4239      4245      4226      4224      4223      4227
      4226      4224      4223      4231      4226      4224      4223      4235
      4226      4224      4239      4240      4226      4224      4239      4241
      4226      4224      4239      4245      4227      4223      4224      4239
      4227      4223      4231      4232      4227      4223      4231      4233
      4227      4223      4231      4234      4227      4223      4235      4236
      4227      4223      4235      4237      4227      4223      4235      4238
      4228      4227      4223      4231      4228      4227      4223      4235
      4229      4227      4223      4231      4229      4227      4223      4235
      4230      4227      4223      4231      4230      4227      4223      4235
      4231      4223      4224      4239      4231      4223      4235      4236
      4231      4223      4235      4237      4231      4223      4235      4238
      4232      4231      4223      4235      4233      4231      4223      4235
      4234      4231      4223      4235      4235      4223      4224      4239
      4239      4245      4242      4243      4239      4245      4242      4244
      4239      4245      4242      4246      4240      4239      4245      4242
      4241      4239      4245      4242      4242      4246      4247      4248
      4242      4246      4247      4249      4242      4246      4247      4250
      4243      4242      4246      4247      4244      4242      4246      4247
      4245      4242      4246      4247      4246      4247      4250      4251
      4246      4247      4250      4252      4246      4247      4250      4258
      4247      4250      4252      4253      4247      4250      4258      4259
      4247      4250      4258      4260      4247      4250      4258      4261
      4248      4247      4250      4251      4248      4247      4250      4252
      4248      4247      4250      4258      4249      4247      4250      4251
      4249      4247      4250      4252      4249      4247      4250      4258
      4250      4252      4253      4254      4250      4252      4253      4255
      4250      4258      4261      4262      4251      4250      4252      4253
      4251      4250      4258      4259      4251      4250      4258      4260
      4251      4250      4258      4261      4252      4250      4258      4259
      4252      4250      4258      4260      4252      4250      4258      4261
      4252      4253      4255      4256      4252      4253      4255      4257
      4252      4253      4255      4267      4253      4252      4250      4258
      4253      4255      4267      4268      4253      4255      4267      4269
      4253      4255      4267      4270      4254      4253      4255      4256
      4254      4253      4255      4257      4254      4253      4255      4267
      4255      4267      4270      4271      4255      4267      4270      4272
      4255      4267      4270      4273      4256      4255      4267      4268
      4256      4255      4267      4269      4256      4255      4267      4270
      4257      4255      4267      4268      4257      4255      4267      4269
      4257      4255      4267      4270      4258      4261      4262      4263
      4258      4261      4262      4264      4259      4258      4261      4262
      4260      4258      4261      4262      4261      4262      4264      4265
      4261      4262      4264      4266      4261      4262      4264      4314
      4262      4264      4314      4315      4262      4264      4314      4316
      4262      4264      4314      4317      4263      4262      4264      4265
      4263      4262      4264      4266      4263      4262      4264      4314
      4264      4314      4317      4318      4264      4314      4317      4319
      4264      4314      4317      4320      4265      4264      4314      4315
      4265      4264      4314      4316      4265      4264      4314      4317
      4266      4264      4314      4315      4266      4264      4314      4316
      4266      4264      4314      4317      4267      4270      4273      4274
      4267      4270      4273      4275      4267      4270      4273      4276
      4268      4267      4270      4271      4268      4267      4270      4272
      4268      4267      4270      4273      4269      4267      4270      4271
      4269      4267      4270      4272      4269      4267      4270      4273
      4270      4273      4276      4277      4270      4273      4276      4278
      4270      4273      4276      4279      4271      4270      4273      4274
      4271      4270      4273      4275      4271      4270      4273      4276
      4272      4270      4273      4274      4272      4270      4273      4275
      4272      4270      4273      4276      4273      4276      4279      4280
      4273      4276      4279      4281      4273      4276      4279      4282
      4274      4273      4276      4277      4274      4273      4276      4278
      4274      4273      4276      4279      4275      4273      4276      4277
      4275      4273      4276      4278      4275      4273      4276      4279
      4276      4279      4282      4283      4276      4279      4282      4284
      4276      4279      4282      4285      4277      4276      4279      4280
      4277      4276      4279      4281      4277      4276      4279      4282
      4278      4276      4279      4280      4278      4276      4279      4281
      4278      4276      4279      4282      4279      4282      4285      4286
      4279      4282      4285      4287      4280      4279      4282      4283
      4280      4279      4282      4284      4280      4279      4282      4285
      4281      4279      4282      4283      4281      4279      4282      4284
      4281      4279      4282      4285      4282      4285      4287      4288
      4282      4285      4287      4289      4283      4282      4285      4286
      4283      4282      4285      4287      4284      4282      4285      4286
      4284      4282      4285      4287      4285      4287      4289      4290
      4285      4287      4289      4291      4285      4287      4289      4292
      4286      4285      4287      4288      4286      4285      4287      4289
      4287      4289      4292      4293      4287      4289      4292      4294
      4287      4289      4292      4295      4288      4287      4289      4290
      4288      4287      4289      4291      4288      4287      4289      4292
      4289      4292      4295      4296      4289      4292      4295      4297
      4289      4292      4295      4298      4290      4289      4292      4293
      4290      4289      4292      4294      4290      4289      4292      4295
      4291      4289      4292      4293      4291      4289      4292      4294
      4291      4289      4292      4295      4292      4295      4298      4299
      4292      4295      4298      4300      4292      4295      4298      4301
      4293      4292      4295      4296      4293      4292      4295      4297
      4293      4292      4295      4298      4294      4292      4295      4296
      4294      4292      4295      4297      4294      4292      4295      4298
      4295      4298      4301      4302      4295      4298      4301      4303
      4295      4298      4301      4304      4296      4295      4298      4299
      4296      4295      4298      4300      4296      4295      4298      4301
      4297      4295      4298      4299      4297      4295      4298      4300
      4297      4295      4298      4301      4298      4301      4304      4305
      4298      4301      4304      4306      4298      4301      4304      4307
      4299      4298      4301      4302      4299      4298      4301      4303
      4299      4298      4301      4304      4300      4298      4301      4302
      4300      4298      4301      4303      4300      4298      4301      4304
      4301      4304      4307      4308      4301      4304      4307      4309
      4301      4304      4307      4310      4302      4301      4304      4305
      4302      4301      4304      4306      4302      4301      4304      4307
      4303      4301      4304      4305      4303      4301      4304      4306
      4303      4301      4304      4307      4304      4307      4310      4311
      4304      4307      4310      4312      4304      4307      4310      4313
      4305      4304      4307      4308      4305      4304      4307      4309
      4305      4304      4307      4310      4306      4304      4307      4308
      4306      4304      4307      4309      4306      4304      4307      4310
      4308      4307      4310      4311      4308      4307      4310      4312
      4308      4307      4310      4313      4309      4307      4310      4311
      4309      4307      4310      4312      4309      4307      4310      4313
      4314      4317      4320      4321      4314      4317      4320      4322
      4314      4317      4320      4323      4315      4314      4317      4318
      4315      4314      4317      4319      4315      4314      4317      4320
      4316      4314      4317      4318      4316      4314      4317      4319
      4316      4314      4317      4320      4317      4320      4323      4324
      4317      4320      4323      4325      4317      4320      4323      4326
      4318      4317      4320      4321      4318      4317      4320      4322
      4318      4317      4320      4323      4319      4317      4320      4321
      4319      4317      4320      4322      4319      4317      4320      4323
      4320      4323      4326      4327      4320      4323      4326      4328
      4320      4323      4326      4329      4321      4320      4323      4324
      4321      4320      4323      4325      4321      4320      4323      4326
      4322      4320      4323      4324      4322      4320      4323      4325
      4322      4320      4323      4326      4323      4326      4329      4330
      4323      4326      4329      4331      4323      4326      4329      4332
      4324      4323      4326      4327      4324      4323      4326      4328
      4324      4323      4326      4329      4325      4323      4326      4327
      4325      4323      4326      4328      4325      4323      4326      4329
      4326      4329      4332      4333      4326      4329      4332      4334
      4326      4329      4332      4335      4327      4326      4329      4330
      4327      4326      4329      4331      4327      4326      4329      4332
      4328      4326      4329      4330      4328      4326      4329      4331
      4328      4326      4329      4332      4329      4332      4335      4336
      4329      4332      4335      4337      4329      4332      4335      4338
      4330      4329      4332      4333      4330      4329      4332      4334
      4330      4329      4332      4335      4331      4329      4332      4333
      4331      4329      4332      4334      4331      4329      4332      4335
      4332      4335      4338      4339      4332      4335      4338      4340
      4332      4335      4338      4341      4333      4332      4335      4336
      4333      4332      4335      4337      4333      4332      4335      4338
      4334      4332      4335      4336      4334      4332      4335      4337
      4334      4332      4335      4338      4335      4338      4341      4342
      4335      4338      4341      4343      4335      4338      4341      4344
      4336      4335      4338      4339      4336      4335      4338      4340
      4336      4335      4338      4341      4337      4335      4338      4339
      4337      4335      4338      4340      4337      4335      4338      4341
      4338      4341      4344      4345      4338      4341      4344      4346
      4338      4341      4344      4347      4339      4338      4341      4342
      4339      4338      4341      4343      4339      4338      4341      4344
      4340      4338      4341      4342      4340      4338      4341      4343
      4340      4338      4341      4344      4341      4344      4347      4348
      4341      4344      4347      4349      4341      4344      4347      4350
      4342      4341      4344      4345      4342      4341      4344      4346
      4342      4341      4344      4347      4343      4341      4344      4345
      4343      4341      4344      4346      4343      4341      4344      4347
      4344      4347      4350      4351      4344      4347      4350      4352
      4344      4347      4350      4353      4345      4344      4347      4348
      4345      4344      4347      4349      4345      4344      4347      4350
      4346      4344      4347      4348      4346      4344      4347      4349
      4346      4344      4347      4350      4347      4350      4353      4354
      4347      4350      4353      4355      4347      4350      4353      4356
      4348      4347      4350      4351      4348      4347      4350      4352
      4348      4347      4350      4353      4349      4347      4350      4351
      4349      4347      4350      4352      4349      4347      4350      4353
      4351      4350      4353      4354      4351      4350      4353      4355
      4351      4350      4353      4356      4352      4350      4353      4354
      4352      4350      4353      4355      4352      4350      4353      4356
      4357      4358      4373      4374      4357      4358      4373      4375
      4357      4358      4373      4379      4358      4357      4361      4362
      4358      4357      4361      4363      4358      4357      4361      4364
      4358      4357      4365      4366      4358      4357      4365      4367
      4358      4357      4365      4368      4358      4357      4369      4370
      4358      4357      4369      4371      4358      4357      4369      4372
      4358      4373      4379      4376      4359      4358      4357      4361
      4359      4358      4357      4365      4359      4358      4357      4369
      4359      4358      4373      4374      4359      4358      4373      4375
      4359      4358      4373      4379      4360      4358      4357      4361
      4360      4358      4357      4365      4360      4358      4357      4369
      4360      4358      4373      4374      4360      4358      4373      4375
      4360      4358      4373      4379      4361      4357      4358      4373
      4361      4357      4365      4366      4361      4357      4365      4367
      4361      4357      4365      4368      4361      4357      4369      4370
      4361      4357      4369      4371      4361      4357      4369      4372
      4362      4361      4357      4365      4362      4361      4357      4369
      4363      4361      4357      4365      4363      4361      4357      4369
      4364      4361      4357      4365      4364      4361      4357      4369
      4365      4357      4358      4373      4365      4357      4369      4370
      4365      4357      4369      4371      4365      4357      4369      4372
      4366      4365      4357      4369      4367      4365      4357      4369
      4368      4365      4357      4369      4369      4357      4358      4373
      4373      4379      4376      4377      4373      4379      4376      4378
      4373      4379      4376      4380      4374      4373      4379      4376
      4375      4373      4379      4376      4376      4380      4381      4382
      4376      4380      4381      4383      4376      4380      4381      4384
      4377      4376      4380      4381      4378      4376      4380      4381
      4379      4376      4380      4381      4380      4381      4384      4385
      4380      4381      4384      4386      4380      4381      4384      4392
      4381      4384      4386      4387      4381      4384      4392      4393
      4381      4384      4392      4394      4381      4384      4392      4395
      4382      4381      4384      4385      4382      4381      4384      4386
      4382      4381      4384      4392      4383      4381      4384      4385
      4383      4381      4384      4386      4383      4381      4384      4392
      4384      4386      4387      4388      4384      4386      4387      4389
      4384      4392      4395      4396      4385      4384      4386      4387
      4385      4384      4392      4393      4385      4384      4392      4394
      4385      4384      4392      4395      4386      4384      4392      4393
      4386      4384      4392      4394      4386      4384      4392      4395
      4386      4387      4389      4390      4386      4387      4389      4391
      4386      4387      4389      4401      4387      4386      4384      4392
      4387      4389      4401      4402      4387      4389      4401      4403
      4387      4389      4401      4404      4388      4387      4389      4390
      4388      4387      4389      4391      4388      4387      4389      4401
      4389      4401      4404      4405      4389      4401      4404      4406
      4389      4401      4404      4407      4390      4389      4401      4402
      4390      4389      4401      4403      4390      4389      4401      4404
      4391      4389      4401      4402      4391      4389      4401      4403
      4391      4389      4401      4404      4392      4395      4396      4397
      4392      4395      4396      4398      4393      4392      4395      4396
      4394      4392      4395      4396      4395      4396      4398      4399
      4395      4396      4398      4400      4395      4396      4398      4448
      4396      4398      4448      4449      4396      4398      4448      4450
      4396      4398      4448      4451      4397      4396      4398      4399
      4397      4396      4398      4400      4397      4396      4398      4448
      4398      4448      4451      4452      4398      4448      4451      4453
      4398      4448      4451      4454      4399      4398      4448      4449
      4399      4398      4448      4450      4399      4398      4448      4451
      4400      4398      4448      4449      4400      4398      4448      4450
      4400      4398      4448      4451      4401      4404      4407      4408
      4401      4404      4407      4409      4401      4404      4407      4410
      4402      4401      4404      4405      4402      4401      4404      4406
      4402      4401      4404      4407      4403      4401      4404      4405
      4403      4401      4404      4406      4403      4401      4404      4407
      4404      4407      4410      4411      4404      4407      4410      4412
      4404      4407      4410      4413      4405      4404      4407      4408
      4405      4404      4407      4409      4405      4404      4407      4410
      4406      4404      4407      4408      4406      4404      4407      4409
      4406      4404      4407      4410      4407      4410      4413      4414
      4407      4410      4413      4415      4407      4410      4413      4416
      4408      4407      4410      4411      4408      4407      4410      4412
      4408      4407      4410      4413      4409      4407      4410      4411
      4409      4407      4410      4412      4409      4407      4410      4413
      4410      4413      4416      4417      4410      4413      4416      4418
      4410      4413      4416      4419      4411      4410      4413      4414
      4411      4410      4413      4415      4411      4410      4413      4416
      4412      4410      4413      4414      4412      4410      4413      4415
      4412      4410      4413      4416      4413      4416      4419      4420
      4413      4416      4419      4421      4414      4413      4416      4417
      4414      4413      4416      4418      4414      4413      4416      4419
      4415      4413      4416      4417      4415      4413      4416      4418
      4415      4413      4416      4419      4416      4419      4421      4422
      4416      4419      4421      4423      4417      4416      4419      4420
      4417      4416      4419      4421      4418      4416      4419      4420
      4418      4416      4419      4421      4419      4421      4423      4424
      4419      4421      4423      4425      4419      4421      4423      4426
      4420      4419      4421      4422      4420      4419      4421      4423
      4421      4423      4426      4427      4421      4423      4426      4428
      4421      4423      4426      4429      4422      4421      4423      4424
      4422      4421      4423      4425      4422      4421      4423      4426
      4423      4426      4429      4430      4423      4426      4429      4431
      4423      4426      4429      4432      4424      4423      4426      4427
      4424      4423      4426      4428      4424      4423      4426      4429
      4425      4423      4426      4427      4425      4423      4426      4428
      4425      4423      4426      4429      4426      4429      4432      4433
      4426      4429      4432      4434      4426      4429      4432      4435
      4427      4426      4429      4430      4427      4426      4429      4431
      4427      4426      4429      4432      4428      4426      4429      4430
      4428      4426      4429      4431      4428      4426      4429      4432
      4429      4432      4435      4436      4429      4432      4435      4437
      4429      4432      4435      4438      4430      4429      4432      4433
      4430      4429      4432      4434      4430      4429      4432      4435
      4431      4429      4432      4433      4431      4429      4432      4434
      4431      4429      4432      4435      4432      4435      4438      4439
      4432      4435      4438      4440      4432      4435      4438      4441
      4433      4432      4435      4436      4433      4432      4435      4437
      4433      4432      4435      4438      4434      4432      4435      4436
      4434      4432      4435      4437      4434      4432      4435      4438
      4435      4438      4441      4442      4435      4438      4441      4443
      4435      4438      4441      4444      4436      4435      4438      4439
      4436      4435      4438      4440      4436      4435      4438      4441
      4437      4435      4438      4439      4437      4435      4438      4440
      4437      4435      4438      4441      4438      4441      4444      4445
      4438      4441      4444      4446      4438      4441      4444      4447
      4439      4438      4441      4442      4439      4438      4441      4443
      4439      4438      4441      4444      4440      4438      4441      4442
      4440      4438      4441      4443      4440      4438      4441      4444
      4442      4441      4444      4445      4442      4441      4444      4446
      4442      4441      4444      4447      4443      4441      4444      4445
      4443      4441      4444      4446      4443      4441      4444      4447
      4448      4451      4454      4455      4448      4451      4454      4456
      4448      4451      4454      4457      4449      4448      4451      4452
      4449      4448      4451      4453      4449      4448      4451      4454
      4450      4448      4451      4452      4450      4448      4451      4453
      4450      4448      4451      4454      4451      4454      4457      4458
      4451      4454      4457      4459      4451      4454      4457      4460
      4452      4451      4454      4455      4452      4451      4454      4456
      4452      4451      4454      4457      4453      4451      4454      4455
      4453      4451      4454      4456      4453      4451      4454      4457
      4454      4457      4460      4461      4454      4457      4460      4462
      4454      4457      4460      4463      4455      4454      4457      4458
      4455      4454      4457      4459      4455      4454      4457      4460
      4456      4454      4457      4458      4456      4454      4457      4459
      4456      4454      4457      4460      4457      4460      4463      4464
      4457      4460      4463      4465      4457      4460      4463      4466
      4458      4457      4460      4461      4458      4457      4460      4462
      4458      4457      4460      4463      4459      4457      4460      4461
      4459      4457      4460      4462      4459      4457      4460      4463
      4460      4463      4466      4467      4460      4463      4466      4468
      4460      4463      4466      4469      4461      4460      4463      4464
      4461      4460      4463      4465      4461      4460      4463      4466
      4462      4460      4463      4464      4462      4460      4463      4465
      4462      4460      4463      4466      4463      4466      4469      4470
      4463      4466      4469      4471      4463      4466      4469      4472
      4464      4463      4466      4467      4464      4463      4466      4468
      4464      4463      4466      4469      4465      4463      4466      4467
      4465      4463      4466      4468      4465      4463      4466      4469
      4466      4469      4472      4473      4466      4469      4472      4474
      4466      4469      4472      4475      4467      4466      4469      4470
      4467      4466      4469      4471      4467      4466      4469      4472
      4468      4466      4469      4470      4468      4466      4469      4471
      4468      4466      4469      4472      4469      4472      4475      4476
      4469      4472      4475      4477      4469      4472      4475      4478
      4470      4469      4472      4473      4470      4469      4472      4474
      4470      4469      4472      4475      4471      4469      4472      4473
      4471      4469      4472      4474      4471      4469      4472      4475
      4472      4475      4478      4479      4472      4475      4478      4480
      4472      4475      4478      4481      4473      4472      4475      4476
      4473      4472      4475      4477      4473      4472      4475      4478
      4474      4472      4475      4476      4474      4472      4475      4477
      4474      4472      4475      4478      4475      4478      4481      4482
      4475      4478      4481      4483      4475      4478      4481      4484
      4476      4475      4478      4479      4476      4475      4478      4480
      4476      4475      4478      4481      4477      4475      4478      4479
      4477      4475      4478      4480      4477      4475      4478      4481
      4478      4481      4484      4485      4478      4481      4484      4486
      4478      4481      4484      4487      4479      4478      4481      4482
      4479      4478      4481      4483      4479      4478      4481      4484
      4480      4478      4481      4482      4480      4478      4481      4483
      4480      4478      4481      4484      4481      4484      4487      4488
      4481      4484      4487      4489      4481      4484      4487      4490
      4482      4481      4484      4485      4482      4481      4484      4486
      4482      4481      4484      4487      4483      4481      4484      4485
      4483      4481      4484      4486      4483      4481      4484      4487
      4485      4484      4487      4488      4485      4484      4487      4489
      4485      4484      4487      4490      4486      4484      4487      4488
      4486      4484      4487      4489      4486      4484      4487      4490
      4491      4492      4507      4508      4491      4492      4507      4509
      4491      4492      4507      4513      4492      4491      4495      4496
      4492      4491      4495      4497      4492      4491      4495      4498
      4492      4491      4499      4500      4492      4491      4499      4501
      4492      4491      4499      4502      4492      4491      4503      4504
      4492      4491      4503      4505      4492      4491      4503      4506
      4492      4507      4513      4510      4493      4492      4491      4495
      4493      4492      4491      4499      4493      4492      4491      4503
      4493      4492      4507      4508      4493      4492      4507      4509
      4493      4492      4507      4513      4494      4492      4491      4495
      4494      4492      4491      4499      4494      4492      4491      4503
      4494      4492      4507      4508      4494      4492      4507      4509
      4494      4492      4507      4513      4495      4491      4492      4507
      4495      4491      4499      4500      4495      4491      4499      4501
      4495      4491      4499      4502      4495      4491      4503      4504
      4495      4491      4503      4505      4495      4491      4503      4506
      4496      4495      4491      4499      4496      4495      4491      4503
      4497      4495      4491      4499      4497      4495      4491      4503
      4498      4495      4491      4499      4498      4495      4491      4503
      4499      4491      4492      4507      4499      4491      4503      4504
      4499      4491      4503      4505      4499      4491      4503      4506
      4500      4499      4491      4503      4501      4499      4491      4503
      4502      4499      4491      4503      4503      4491      4492      4507
      4507      4513      4510      4511      4507      4513      4510      4512
      4507      4513      4510      4514      4508      4507      4513      4510
      4509      4507      4513      4510      4510      4514      4515      4516
      4510      4514      4515      4517      4510      4514      4515      4518
      4511      4510      4514      4515      4512      4510      4514      4515
      4513      4510      4514      4515      4514      4515      4518      4519
      4514      4515      4518      4520      4514      4515      4518      4526
      4515      4518      4520      4521      4515      4518      4526      4527
      4515      4518      4526      4528      4515      4518      4526      4529
      4516      4515      4518      4519      4516      4515      4518      4520
      4516      4515      4518      4526      4517      4515      4518      4519
      4517      4515      4518      4520      4517      4515      4518      4526
      4518      4520      4521      4522      4518      4520      4521      4523
      4518      4526      4529      4530      4519      4518      4520      4521
      4519      4518      4526      4527      4519      4518      4526      4528
      4519      4518      4526      4529      4520      4518      4526      4527
      4520      4518      4526      4528      4520      4518      4526      4529
      4520      4521      4523      4524      4520      4521      4523      4525
      4520      4521      4523      4535      4521      4520      4518      4526
      4521      4523      4535      4536      4521      4523      4535      4537
      4521      4523      4535      4538      4522      4521      4523      4524
      4522      4521      4523      4525      4522      4521      4523      4535
      4523      4535      4538      4539      4523      4535      4538      4540
      4523      4535      4538      4541      4524      4523      4535      4536
      4524      4523      4535      4537      4524      4523      4535      4538
      4525      4523      4535      4536      4525      4523      4535      4537
      4525      4523      4535      4538      4526      4529      4530      4531
      4526      4529      4530      4532      4527      4526      4529      4530
      4528      4526      4529      4530      4529      4530      4532      4533
      4529      4530      4532      4534      4529      4530      4532      4582
      4530      4532      4582      4583      4530      4532      4582      4584
      4530      4532      4582      4585      4531      4530      4532      4533
      4531      4530      4532      4534      4531      4530      4532      4582
      4532      4582      4585      4586      4532      4582      4585      4587
      4532      4582      4585      4588      4533      4532      4582      4583
      4533      4532      4582      4584      4533      4532      4582      4585
      4534      4532      4582      4583      4534      4532      4582      4584
      4534      4532      4582      4585      4535      4538      4541      4542
      4535      4538      4541      4543      4535      4538      4541      4544
      4536      4535      4538      4539      4536      4535      4538      4540
      4536      4535      4538      4541      4537      4535      4538      4539
      4537      4535      4538      4540      4537      4535      4538      4541
      4538      4541      4544      4545      4538      4541      4544      4546
      4538      4541      4544      4547      4539      4538      4541      4542
      4539      4538      4541      4543      4539      4538      4541      4544
      4540      4538      4541      4542      4540      4538      4541      4543
      4540      4538      4541      4544      4541      4544      4547      4548
      4541      4544      4547      4549      4541      4544      4547      4550
      4542      4541      4544      4545      4542      4541      4544      4546
      4542      4541      4544      4547      4543      4541      4544      4545
      4543      4541      4544      4546      4543      4541      4544      4547
      4544      4547      4550      4551      4544      4547      4550      4552
      4544      4547      4550      4553      4545      4544      4547      4548
      4545      4544      4547      4549      4545      4544      4547      4550
      4546      4544      4547      4548      4546      4544      4547      4549
      4546      4544      4547      4550      4547      4550      4553      4554
      4547      4550      4553      4555      4548      4547      4550      4551
      4548      4547      4550      4552      4548      4547      4550      4553
      4549      4547      4550      4551      4549      4547      4550      4552
      4549      4547      4550      4553      4550      4553      4555      4556
      4550      4553      4555      4557      4551      4550      4553      4554
      4551      4550      4553      4555      4552      4550      4553      4554
      4552      4550      4553      4555      4553      4555      4557      4558
      4553      4555      4557      4559      4553      4555      4557      4560
      4554      4553      4555      4556      4554      4553      4555      4557
      4555      4557      4560      4561      4555      4557      4560      4562
      4555      4557      4560      4563      4556      4555      4557      4558
      4556      4555      4557      4559      4556      4555      4557      4560
      4557      4560      4563      4564      4557      4560      4563      4565
      4557      4560      4563      4566      4558      4557      4560      4561
      4558      4557      4560      4562      4558      4557      4560      4563
      4559      4557      4560      4561      4559      4557      4560      4562
      4559      4557      4560      4563      4560      4563      4566      4567
      4560      4563      4566      4568      4560      4563      4566      4569
      4561      4560      4563      4564      4561      4560      4563      4565
      4561      4560      4563      4566      4562      4560      4563      4564
      4562      4560      4563      4565      4562      4560      4563      4566
      4563      4566      4569      4570      4563      4566      4569      4571
      4563      4566      4569      4572      4564      4563      4566      4567
      4564      4563      4566      4568      4564      4563      4566      4569
      4565      4563      4566      4567      4565      4563      4566      4568
      4565      4563      4566      4569      4566      4569      4572      4573
      4566      4569      4572      4574      4566      4569      4572      4575
      4567      4566      4569      4570      4567      4566      4569      4571
      4567      4566      4569      4572      4568      4566      4569      4570
      4568      4566      4569      4571      4568      4566      4569      4572
      4569      4572      4575      4576      4569      4572      4575      4577
      4569      4572      4575      4578      4570      4569      4572      4573
      4570      4569      4572      4574      4570      4569      4572      4575
      4571      4569      4572      4573      4571      4569      4572      4574
      4571      4569      4572      4575      4572      4575      4578      4579
      4572      4575      4578      4580      4572      4575      4578      4581
      4573      4572      4575      4576      4573      4572      4575      4577
      4573      4572      4575      4578      4574      4572      4575      4576
      4574      4572      4575      4577      4574      4572      4575      4578
      4576      4575      4578      4579      4576      4575      4578      4580
      4576      4575      4578      4581      4577      4575      4578      4579
      4577      4575      4578      4580      4577      4575      4578      4581
      4582      4585      4588      4589      4582      4585      4588      4590
      4582      4585      4588      4591      4583      4582      4585      4586
      4583      4582      4585      4587      4583      4582      4585      4588
      4584      4582      4585      4586      4584      4582      4585      4587
      4584      4582      4585      4588      4585      4588      4591      4592
      4585      4588      4591      4593      4585      4588      4591      4594
      4586      4585      4588      4589      4586      4585      4588      4590
      4586      4585      4588      4591      4587      4585      4588      4589
      4587      4585      4588      4590      4587      4585      4588      4591
      4588      4591      4594      4595      4588      4591      4594      4596
      4588      4591      4594      4597      4589      4588      4591      4592
      4589      4588      4591      4593      4589      4588      4591      4594
      4590      4588      4591      4592      4590      4588      4591      4593
      4590      4588      4591      4594      4591      4594      4597      4598
      4591      4594      4597      4599      4591      4594      4597      4600
      4592      4591      4594      4595      4592      4591      4594      4596
      4592      4591      4594      4597      4593      4591      4594      4595
      4593      4591      4594      4596      4593      4591      4594      4597
      4594      4597      4600      4601      4594      4597      4600      4602
      4594      4597      4600      4603      4595      4594      4597      4598
      4595      4594      4597      4599      4595      4594      4597      4600
      4596      4594      4597      4598      4596      4594      4597      4599
      4596      4594      4597      4600      4597      4600      4603      4604
      4597      4600      4603      4605      4597      4600      4603      4606
      4598      4597      4600      4601      4598      4597      4600      4602
      4598      4597      4600      4603      4599      4597      4600      4601
      4599      4597      4600      4602      4599      4597      4600      4603
      4600      4603      4606      4607      4600      4603      4606      4608
      4600      4603      4606      4609      4601      4600      4603      4604
      4601      4600      4603      4605      4601      4600      4603      4606
      4602      4600      4603      4604      4602      4600      4603      4605
      4602      4600      4603      4606      4603      4606      4609      4610
      4603      4606      4609      4611      4603      4606      4609      4612
      4604      4603      4606      4607      4604      4603      4606      4608
      4604      4603      4606      4609      4605      4603      4606      4607
      4605      4603      4606      4608      4605      4603      4606      4609
      4606      4609      4612      4613      4606      4609      4612      4614
      4606      4609      4612      4615      4607      4606      4609      4610
      4607      4606      4609      4611      4607      4606      4609      4612
      4608      4606      4609      4610      4608      4606      4609      4611
      4608      4606      4609      4612      4609      4612      4615      4616
      4609      4612      4615      4617      4609      4612      4615      4618
      4610      4609      4612      4613      4610      4609      4612      4614
      4610      4609      4612      4615      4611      4609      4612      4613
      4611      4609      4612      4614      4611      4609      4612      4615
      4612      4615      4618      4619      4612      4615      4618      4620
      4612      4615      4618      4621      4613      4612      4615      4616
      4613      4612      4615      4617      4613      4612      4615      4618
      4614      4612      4615      4616      4614      4612      4615      4617
      4614      4612      4615      4618      4615      4618      4621      4622
      4615      4618      4621      4623      4615      4618      4621      4624
      4616      4615      4618      4619      4616      4615      4618      4620
      4616      4615      4618      4621      4617      4615      4618      4619
      4617      4615      4618      4620      4617      4615      4618      4621
      4619      4618      4621      4622      4619      4618      4621      4623
      4619      4618      4621      4624      4620      4618      4621      4622
      4620      4618      4621      4623      4620      4618      4621      4624
      4625      4626      4641      4642      4625      4626      4641      4643
      4625      4626      4641      4647      4626      4625      4629      4630
      4626      4625      4629      4631      4626      4625      4629      4632
      4626      4625      4633      4634      4626      4625      4633      4635
      4626      4625      4633      4636      4626      4625      4637      4638
      4626      4625      4637      4639      4626      4625      4637      4640
      4626      4641      4647      4644      4627      4626      4625      4629
      4627      4626      4625      4633      4627      4626      4625      4637
      4627      4626      4641      4642      4627      4626      4641      4643
      4627      4626      4641      4647      4628      4626      4625      4629
      4628      4626      4625      4633      4628      4626      4625      4637
      4628      4626      4641      4642      4628      4626      4641      4643
      4628      4626      4641      4647      4629      4625      4626      4641
      4629      4625      4633      4634      4629      4625      4633      4635
      4629      4625      4633      4636      4629      4625      4637      4638
      4629      4625      4637      4639      4629      4625      4637      4640
      4630      4629      4625      4633      4630      4629      4625      4637
      4631      4629      4625      4633      4631      4629      4625      4637
      4632      4629      4625      4633      4632      4629      4625      4637
      4633      4625      4626      4641      4633      4625      4637      4638
      4633      4625      4637      4639      4633      4625      4637      4640
      4634      4633      4625      4637      4635      4633      4625      4637
      4636      4633      4625      4637      4637      4625      4626      4641
      4641      4647      4644      4645      4641      4647      4644      4646
      4641      4647      4644      4648      4642      4641      4647      4644
      4643      4641      4647      4644      4644      4648      4649      4650
      4644      4648      4649      4651      4644      4648      4649      4652
      4645      4644      4648      4649      4646      4644      4648      4649
      4647      4644      4648      4649      4648      4649      4652      4653
      4648      4649      4652      4654      4648      4649      4652      4660
      4649      4652      4654      4655      4649      4652      4660      4661
      4649      4652      4660      4662      4649      4652      4660      4663
      4650      4649      4652      4653      4650      4649      4652      4654
      4650      4649      4652      4660      4651      4649      4652      4653
      4651      4649      4652      4654      4651      4649      4652      4660
      4652      4654      4655      4656      4652      4654      4655      4657
      4652      4660      4663      4664      4653      4652      4654      4655
      4653      4652      4660      4661      4653      4652      4660      4662
      4653      4652      4660      4663      4654      4652      4660      4661
      4654      4652      4660      4662      4654      4652      4660      4663
      4654      4655      4657      4658      4654      4655      4657      4659
      4654      4655      4657      4669      4655      4654      4652      4660
      4655      4657      4669      4670      4655      4657      4669      4671
      4655      4657      4669      4672      4656      4655      4657      4658
      4656      4655      4657      4659      4656      4655      4657      4669
      4657      4669      4672      4673      4657      4669      4672      4674
      4657      4669      4672      4675      4658      4657      4669      4670
      4658      4657      4669      4671      4658      4657      4669      4672
      4659      4657      4669      4670      4659      4657      4669      4671
      4659      4657      4669      4672      4660      4663      4664      4665
      4660      4663      4664      4666      4661      4660      4663      4664
      4662      4660      4663      4664      4663      4664      4666      4667
      4663      4664      4666      4668      4663      4664      4666      4716
      4664      4666      4716      4717      4664      4666      4716      4718
      4664      4666      4716      4719      4665      4664      4666      4667
      4665      4664      4666      4668      4665      4664      4666      4716
      4666      4716      4719      4720      4666      4716      4719      4721
      4666      4716      4719      4722      4667      4666      4716      4717
      4667      4666      4716      4718      4667      4666      4716      4719
      4668      4666      4716      4717      4668      4666      4716      4718
      4668      4666      4716      4719      4669      4672      4675      4676
      4669      4672      4675      4677      4669      4672      4675      4678
      4670      4669      4672      4673      4670      4669      4672      4674
      4670      4669      4672      4675      4671      4669      4672      4673
      4671      4669      4672      4674      4671      4669      4672      4675
      4672      4675      4678      4679      4672      4675      4678      4680
      4672      4675      4678      4681      4673      4672      4675      4676
      4673      4672      4675      4677      4673      4672      4675      4678
      4674      4672      4675      4676      4674      4672      4675      4677
      4674      4672      4675      4678      4675      4678      4681      4682
      4675      4678      4681      4683      4675      4678      4681      4684
      4676      4675      4678      4679      4676      4675      4678      4680
      4676      4675      4678      4681      4677      4675      4678      4679
      4677      4675      4678      4680      4677      4675      4678      4681
      4678      4681      4684      4685      4678      4681      4684      4686
      4678      4681      4684      4687      4679      4678      4681      4682
      4679      4678      4681      4683      4679      4678      4681      4684
      4680      4678      4681      4682      4680      4678      4681      4683
      4680      4678      4681      4684      4681      4684      4687      4688
      4681      4684      4687      4689      4682      4681      4684      4685
      4682      4681      4684      4686      4682      4681      4684      4687
      4683      4681      4684      4685      4683      4681      4684      4686
      4683      4681      4684      4687      4684      4687      4689      4690
      4684      4687      4689      4691      4685      4684      4687      4688
      4685      4684      4687      4689      4686      4684      4687      4688
      4686      4684      4687      4689      4687      4689      4691      4692
      4687      4689      4691      4693      4687      4689      4691      4694
      4688      4687      4689      4690      4688      4687      4689      4691
      4689      4691      4694      4695      4689      4691      4694      4696
      4689      4691      4694      4697      4690      4689      4691      4692
      4690      4689      4691      4693      4690      4689      4691      4694
      4691      4694      4697      4698      4691      4694      4697      4699
      4691      4694      4697      4700      4692      4691      4694      4695
      4692      4691      4694      4696      4692      4691      4694      4697
      4693      4691      4694      4695      4693      4691      4694      4696
      4693      4691      4694      4697      4694      4697      4700      4701
      4694      4697      4700      4702      4694      4697      4700      4703
      4695      4694      4697      4698      4695      4694      4697      4699
      4695      4694      4697      4700      4696      4694      4697      4698
      4696      4694      4697      4699      4696      4694      4697      4700
      4697      4700      4703      4704      4697      4700      4703      4705
      4697      4700      4703      4706      4698      4697      4700      4701
      4698      4697      4700      4702      4698      4697      4700      4703
      4699      4697      4700      4701      4699      4697      4700      4702
      4699      4697      4700      4703      4700      4703      4706      4707
      4700      4703      4706      4708      4700      4703      4706      4709
      4701      4700      4703      4704      4701      4700      4703      4705
      4701      4700      4703      4706      4702      4700      4703      4704
      4702      4700      4703      4705      4702      4700      4703      4706
      4703      4706      4709      4710      4703      4706      4709      4711
      4703      4706      4709      4712      4704      4703      4706      4707
      4704      4703      4706      4708      4704      4703      4706      4709
      4705      4703      4706      4707      4705      4703      4706      4708
      4705      4703      4706      4709      4706      4709      4712      4713
      4706      4709      4712      4714      4706      4709      4712      4715
      4707      4706      4709      4710      4707      4706      4709      4711
      4707      4706      4709      4712      4708      4706      4709      4710
      4708      4706      4709      4711      4708      4706      4709      4712
      4710      4709      4712      4713      4710      4709      4712      4714
      4710      4709      4712      4715      4711      4709      4712      4713
      4711      4709      4712      4714      4711      4709      4712      4715
      4716      4719      4722      4723      4716      4719      4722      4724
      4716      4719      4722      4725      4717      4716      4719      4720
      4717      4716      4719      4721      4717      4716      4719      4722
      4718      4716      4719      4720      4718      4716      4719      4721
      4718      4716      4719      4722      4719      4722      4725      4726
      4719      4722      4725      4727      4719      4722      4725      4728
      4720      4719      4722      4723      4720      4719      4722      4724
      4720      4719      4722      4725      4721      4719      4722      4723
      4721      4719      4722      4724      4721      4719      4722      4725
      4722      4725      4728      4729      4722      4725      4728      4730
      4722      4725      4728      4731      4723      4722      4725      4726
      4723      4722      4725      4727      4723      4722      4725      4728
      4724      4722      4725      4726      4724      4722      4725      4727
      4724      4722      4725      4728      4725      4728      4731      4732
      4725      4728      4731      4733      4725      4728      4731      4734
      4726      4725      4728      4729      4726      4725      4728      4730
      4726      4725      4728      4731      4727      4725      4728      4729
      4727      4725      4728      4730      4727      4725      4728      4731
      4728      4731      4734      4735      4728      4731      4734      4736
      4728      4731      4734      4737      4729      4728      4731      4732
      4729      4728      4731      4733      4729      4728      4731      4734
      4730      4728      4731      4732      4730      4728      4731      4733
      4730      4728      4731      4734      4731      4734      4737      4738
      4731      4734      4737      4739      4731      4734      4737      4740
      4732      4731      4734      4735      4732      4731      4734      4736
      4732      4731      4734      4737      4733      4731      4734      4735
      4733      4731      4734      4736      4733      4731      4734      4737
      4734      4737      4740      4741      4734      4737      4740      4742
      4734      4737      4740      4743      4735      4734      4737      4738
      4735      4734      4737      4739      4735      4734      4737      4740
      4736      4734      4737      4738      4736      4734      4737      4739
      4736      4734      4737      4740      4737      4740      4743      4744
      4737      4740      4743      4745      4737      4740      4743      4746
      4738      4737      4740      4741      4738      4737      4740      4742
      4738      4737      4740      4743      4739      4737      4740      4741
      4739      4737      4740      4742      4739      4737      4740      4743
      4740      4743      4746      4747      4740      4743      4746      4748
      4740      4743      4746      4749      4741      4740      4743      4744
      4741      4740      4743      4745      4741      4740      4743      4746
      4742      4740      4743      4744      4742      4740      4743      4745
      4742      4740      4743      4746      4743      4746      4749      4750
      4743      4746      4749      4751      4743      4746      4749      4752
      4744      4743      4746      4747      4744      4743      4746      4748
      4744      4743      4746      4749      4745      4743      4746      4747
      4745      4743      4746      4748      4745      4743      4746      4749
      4746      4749      4752      4753      4746      4749      4752      4754
      4746      4749      4752      4755      4747      4746      4749      4750
      4747      4746      4749      4751      4747      4746      4749      4752
      4748      4746      4749      4750      4748      4746      4749      4751
      4748      4746      4749      4752      4749      4752      4755      4756
      4749      4752      4755      4757      4749      4752      4755      4758
      4750      4749      4752      4753      4750      4749      4752      4754
      4750      4749      4752      4755      4751      4749      4752      4753
      4751      4749      4752      4754      4751      4749      4752      4755
      4753      4752      4755      4756      4753      4752      4755      4757
      4753      4752      4755      4758      4754      4752      4755      4756
      4754      4752      4755      4757      4754      4752      4755      4758
      4759      4760      4775      4776      4759      4760      4775      4777
      4759      4760      4775      4781      4760      4759      4763      4764
      4760      4759      4763      4765      4760      4759      4763      4766
      4760      4759      4767      4768      4760      4759      4767      4769
      4760      4759      4767      4770      4760      4759      4771      4772
      4760      4759      4771      4773      4760      4759      4771      4774
      4760      4775      4781      4778      4761      4760      4759      4763
      4761      4760      4759      4767      4761      4760      4759      4771
      4761      4760      4775      4776      4761      4760      4775      4777
      4761      4760      4775      4781      4762      4760      4759      4763
      4762      4760      4759      4767      4762      4760      4759      4771
      4762      4760      4775      4776      4762      4760      4775      4777
      4762      4760      4775      4781      4763      4759      4760      4775
      4763      4759      4767      4768      4763      4759      4767      4769
      4763      4759      4767      4770      4763      4759      4771      4772
      4763      4759      4771      4773      4763      4759      4771      4774
      4764      4763      4759      4767      4764      4763      4759      4771
      4765      4763      4759      4767      4765      4763      4759      4771
      4766      4763      4759      4767      4766      4763      4759      4771
      4767      4759      4760      4775      4767      4759      4771      4772
      4767      4759      4771      4773      4767      4759      4771      4774
      4768      4767      4759      4771      4769      4767      4759      4771
      4770      4767      4759      4771      4771      4759      4760      4775
      4775      4781      4778      4779      4775      4781      4778      4780
      4775      4781      4778      4782      4776      4775      4781      4778
      4777      4775      4781      4778      4778      4782      4783      4784
      4778      4782      4783      4785      4778      4782      4783      4786
      4779      4778      4782      4783      4780      4778      4782      4783
      4781      4778      4782      4783      4782      4783      4786      4787
      4782      4783      4786      4788      4782      4783      4786      4794
      4783      4786      4788      4789      4783      4786      4794      4795
      4783      4786      4794      4796      4783      4786      4794      4797
      4784      4783      4786      4787      4784      4783      4786      4788
      4784      4783      4786      4794      4785      4783      4786      4787
      4785      4783      4786      4788      4785      4783      4786      4794
      4786      4788      4789      4790      4786      4788      4789      4791
      4786      4794      4797      4798      4787      4786      4788      4789
      4787      4786      4794      4795      4787      4786      4794      4796
      4787      4786      4794      4797      4788      4786      4794      4795
      4788      4786      4794      4796      4788      4786      4794      4797
      4788      4789      4791      4792      4788      4789      4791      4793
      4788      4789      4791      4803      4789      4788      4786      4794
      4789      4791      4803      4804      4789      4791      4803      4805
      4789      4791      4803      4806      4790      4789      4791      4792
      4790      4789      4791      4793      4790      4789      4791      4803
      4791      4803      4806      4807      4791      4803      4806      4808
      4791      4803      4806      4809      4792      4791      4803      4804
      4792      4791      4803      4805      4792      4791      4803      4806
      4793      4791      4803      4804      4793      4791      4803      4805
      4793      4791      4803      4806      4794      4797      4798      4799
      4794      4797      4798      4800      4795      4794      4797      4798
      4796      4794      4797      4798      4797      4798      4800      4801
      4797      4798      4800      4802      4797      4798      4800      4850
      4798      4800      4850      4851      4798      4800      4850      4852
      4798      4800      4850      4853      4799      4798      4800      4801
      4799      4798      4800      4802      4799      4798      4800      4850
      4800      4850      4853      4854      4800      4850      4853      4855
      4800      4850      4853      4856      4801      4800      4850      4851
      4801      4800      4850      4852      4801      4800      4850      4853
      4802      4800      4850      4851      4802      4800      4850      4852
      4802      4800      4850      4853      4803      4806      4809      4810
      4803      4806      4809      4811      4803      4806      4809      4812
      4804      4803      4806      4807      4804      4803      4806      4808
      4804      4803      4806      4809      4805      4803      4806      4807
      4805      4803      4806      4808      4805      4803      4806      4809
      4806      4809      4812      4813      4806      4809      4812      4814
      4806      4809      4812      4815      4807      4806      4809      4810
      4807      4806      4809      4811      4807      4806      4809      4812
      4808      4806      4809      4810      4808      4806      4809      4811
      4808      4806      4809      4812      4809      4812      4815      4816
      4809      4812      4815      4817      4809      4812      4815      4818
      4810      4809      4812      4813      4810      4809      4812      4814
      4810      4809      4812      4815      4811      4809      4812      4813
      4811      4809      4812      4814      4811      4809      4812      4815
      4812      4815      4818      4819      4812      4815      4818      4820
      4812      4815      4818      4821      4813      4812      4815      4816
      4813      4812      4815      4817      4813      4812      4815      4818
      4814      4812      4815      4816      4814      4812      4815      4817
      4814      4812      4815      4818      4815      4818      4821      4822
      4815      4818      4821      4823      4816      4815      4818      4819
      4816      4815      4818      4820      4816      4815      4818      4821
      4817      4815      4818      4819      4817      4815      4818      4820
      4817      4815      4818      4821      4818      4821      4823      4824
      4818      4821      4823      4825      4819      4818      4821      4822
      4819      4818      4821      4823      4820      4818      4821      4822
      4820      4818      4821      4823      4821      4823      4825      4826
      4821      4823      4825      4827      4821      4823      4825      4828
      4822      4821      4823      4824      4822      4821      4823      4825
      4823      4825      4828      4829      4823      4825      4828      4830
      4823      4825      4828      4831      4824      4823      4825      4826
      4824      4823      4825      4827      4824      4823      4825      4828
      4825      4828      4831      4832      4825      4828      4831      4833
      4825      4828      4831      4834      4826      4825      4828      4829
      4826      4825      4828      4830      4826      4825      4828      4831
      4827      4825      4828      4829      4827      4825      4828      4830
      4827      4825      4828      4831      4828      4831      4834      4835
      4828      4831      4834      4836      4828      4831      4834      4837
      4829      4828      4831      4832      4829      4828      4831      4833
      4829      4828      4831      4834      4830      4828      4831      4832
      4830      4828      4831      4833      4830      4828      4831      4834
      4831      4834      4837      4838      4831      4834      4837      4839
      4831      4834      4837      4840      4832      4831      4834      4835
      4832      4831      4834      4836      4832      4831      4834      4837
      4833      4831      4834      4835      4833      4831      4834      4836
      4833      4831      4834      4837      4834      4837      4840      4841
      4834      4837      4840      4842      4834      4837      4840      4843
      4835      4834      4837      4838      4835      4834      4837      4839
      4835      4834      4837      4840      4836      4834      4837      4838
      4836      4834      4837      4839      4836      4834      4837      4840
      4837      4840      4843      4844      4837      4840      4843      4845
      4837      4840      4843      4846      4838      4837      4840      4841
      4838      4837      4840      4842      4838      4837      4840      4843
      4839      4837      4840      4841      4839      4837      4840      4842
      4839      4837      4840      4843      4840      4843      4846      4847
      4840      4843      4846      4848      4840      4843      4846      4849
      4841      4840      4843      4844      4841      4840      4843      4845
      4841      4840      4843      4846      4842      4840      4843      4844
      4842      4840      4843      4845      4842      4840      4843      4846
      4844      4843      4846      4847      4844      4843      4846      4848
      4844      4843      4846      4849      4845      4843      4846      4847
      4845      4843      4846      4848      4845      4843      4846      4849
      4850      4853      4856      4857      4850      4853      4856      4858
      4850      4853      4856      4859      4851      4850      4853      4854
      4851      4850      4853      4855      4851      4850      4853      4856
      4852      4850      4853      4854      4852      4850      4853      4855
      4852      4850      4853      4856      4853      4856      4859      4860
      4853      4856      4859      4861      4853      4856      4859      4862
      4854      4853      4856      4857      4854      4853      4856      4858
      4854      4853      4856      4859      4855      4853      4856      4857
      4855      4853      4856      4858      4855      4853      4856      4859
      4856      4859      4862      4863      4856      4859      4862      4864
      4856      4859      4862      4865      4857      4856      4859      4860
      4857      4856      4859      4861      4857      4856      4859      4862
      4858      4856      4859      4860      4858      4856      4859      4861
      4858      4856      4859      4862      4859      4862      4865      4866
      4859      4862      4865      4867      4859      4862      4865      4868
      4860      4859      4862      4863      4860      4859      4862      4864
      4860      4859      4862      4865      4861      4859      4862      4863
      4861      4859      4862      4864      4861      4859      4862      4865
      4862      4865      4868      4869      4862      4865      4868      4870
      4862      4865      4868      4871      4863      4862      4865      4866
      4863      4862      4865      4867      4863      4862      4865      4868
      4864      4862      4865      4866      4864      4862      4865      4867
      4864      4862      4865      4868      4865      4868      4871      4872
      4865      4868      4871      4873      4865      4868      4871      4874
      4866      4865      4868      4869      4866      4865      4868      4870
      4866      4865      4868      4871      4867      4865      4868      4869
      4867      4865      4868      4870      4867      4865      4868      4871
      4868      4871      4874      4875      4868      4871      4874      4876
      4868      4871      4874      4877      4869      4868      4871      4872
      4869      4868      4871      4873      4869      4868      4871      4874
      4870      4868      4871      4872      4870      4868      4871      4873
      4870      4868      4871      4874      4871      4874      4877      4878
      4871      4874      4877      4879      4871      4874      4877      4880
      4872      4871      4874      4875      4872      4871      4874      4876
      4872      4871      4874      4877      4873      4871      4874      4875
      4873      4871      4874      4876      4873      4871      4874      4877
      4874      4877      4880      4881      4874      4877      4880      4882
      4874      4877      4880      4883      4875      4874      4877      4878
      4875      4874      4877      4879      4875      4874      4877      4880
      4876      4874      4877      4878      4876      4874      4877      4879
      4876      4874      4877      4880      4877      4880      4883      4884
      4877      4880      4883      4885      4877      4880      4883      4886
      4878      4877      4880      4881      4878      4877      4880      4882
      4878      4877      4880      4883      4879      4877      4880      4881
      4879      4877      4880      4882      4879      4877      4880      4883
      4880      4883      4886      4887      4880      4883      4886      4888
      4880      4883      4886      4889      4881      4880      4883      4884
      4881      4880      4883      4885      4881      4880      4883      4886
      4882      4880      4883      4884      4882      4880      4883      4885
      4882      4880      4883      4886      4883      4886      4889      4890
      4883      4886      4889      4891      4883      4886      4889      4892
      4884      4883      4886      4887      4884      4883      4886      4888
      4884      4883      4886      4889      4885      4883      4886      4887
      4885      4883      4886      4888      4885      4883      4886      4889
      4887      4886      4889      4890      4887      4886      4889      4891
      4887      4886      4889      4892      4888      4886      4889      4890
      4888      4886      4889      4891      4888      4886      4889      4892
      4893      4894      4909      4910      4893      4894      4909      4911
      4893      4894      4909      4915      4894      4893      4897      4898
      4894      4893      4897      4899      4894      4893      4897      4900
      4894      4893      4901      4902      4894      4893      4901      4903
      4894      4893      4901      4904      4894      4893      4905      4906
      4894      4893      4905      4907      4894      4893      4905      4908
      4894      4909      4915      4912      4895      4894      4893      4897
      4895      4894      4893      4901      4895      4894      4893      4905
      4895      4894      4909      4910      4895      4894      4909      4911
      4895      4894      4909      4915      4896      4894      4893      4897
      4896      4894      4893      4901      4896      4894      4893      4905
      4896      4894      4909      4910      4896      4894      4909      4911
      4896      4894      4909      4915      4897      4893      4894      4909
      4897      4893      4901      4902      4897      4893      4901      4903
      4897      4893      4901      4904      4897      4893      4905      4906
      4897      4893      4905      4907      4897      4893      4905      4908
      4898      4897      4893      4901      4898      4897      4893      4905
      4899      4897      4893      4901      4899      4897      4893      4905
      4900      4897      4893      4901      4900      4897      4893      4905
      4901      4893      4894      4909      4901      4893      4905      4906
      4901      4893      4905      4907      4901      4893      4905      4908
      4902      4901      4893      4905      4903      4901      4893      4905
      4904      4901      4893      4905      4905      4893      4894      4909
      4909      4915      4912      4913      4909      4915      4912      4914
      4909      4915      4912      4916      4910      4909      4915      4912
      4911      4909      4915      4912      4912      4916      4917      4918
      4912      4916      4917      4919      4912      4916      4917      4920
      4913      4912      4916      4917      4914      4912      4916      4917
      4915      4912      4916      4917      4916      4917      4920      4921
      4916      4917      4920      4922      4916      4917      4920      4928
      4917      4920      4922      4923      4917      4920      4928      4929
      4917      4920      4928      4930      4917      4920      4928      4931
      4918      4917      4920      4921      4918      4917      4920      4922
      4918      4917      4920      4928      4919      4917      4920      4921
      4919      4917      4920      4922      4919      4917      4920      4928
      4920      4922      4923      4924      4920      4922      4923      4925
      4920      4928      4931      4932      4921      4920      4922      4923
      4921      4920      4928      4929      4921      4920      4928      4930
      4921      4920      4928      4931      4922      4920      4928      4929
      4922      4920      4928      4930      4922      4920      4928      4931
      4922      4923      4925      4926      4922      4923      4925      4927
      4922      4923      4925      4937      4923      4922      4920      4928
      4923      4925      4937      4938      4923      4925      4937      4939
      4923      4925      4937      4940      4924      4923      4925      4926
      4924      4923      4925      4927      4924      4923      4925      4937
      4925      4937      4940      4941      4925      4937      4940      4942
      4925      4937      4940      4943      4926      4925      4937      4938
      4926      4925      4937      4939      4926      4925      4937      4940
      4927      4925      4937      4938      4927      4925      4937      4939
      4927      4925      4937      4940      4928      4931      4932      4933
      4928      4931      4932      4934      4929      4928      4931      4932
      4930      4928      4931      4932      4931      4932      4934      4935
      4931      4932      4934      4936      4931      4932      4934      4984
      4932      4934      4984      4985      4932      4934      4984      4986
      4932      4934      4984      4987      4933      4932      4934      4935
      4933      4932      4934      4936      4933      4932      4934      4984
      4934      4984      4987      4988      4934      4984      4987      4989
      4934      4984      4987      4990      4935      4934      4984      4985
      4935      4934      4984      4986      4935      4934      4984      4987
      4936      4934      4984      4985      4936      4934      4984      4986
      4936      4934      4984      4987      4937      4940      4943      4944
      4937      4940      4943      4945      4937      4940      4943      4946
      4938      4937      4940      4941      4938      4937      4940      4942
      4938      4937      4940      4943      4939      4937      4940      4941
      4939      4937      4940      4942      4939      4937      4940      4943
      4940      4943      4946      4947      4940      4943      4946      4948
      4940      4943      4946      4949      4941      4940      4943      4944
      4941      4940      4943      4945      4941      4940      4943      4946
      4942      4940      4943      4944      4942      4940      4943      4945
      4942      4940      4943      4946      4943      4946      4949      4950
      4943      4946      4949      4951      4943      4946      4949      4952
      4944      4943      4946      4947      4944      4943      4946      4948
      4944      4943      4946      4949      4945      4943      4946      4947
      4945      4943      4946      4948      4945      4943      4946      4949
      4946      4949      4952      4953      4946      4949      4952      4954
      4946      4949      4952      4955      4947      4946      4949      4950
      4947      4946      4949      4951      4947      4946      4949      4952
      4948      4946      4949      4950      4948      4946      4949      4951
      4948      4946      4949      4952      4949      4952      4955      4956
      4949      4952      4955      4957      4950      4949      4952      4953
      4950      4949      4952      4954      4950      4949      4952      4955
      4951      4949      4952      4953      4951      4949      4952      4954
      4951      4949      4952      4955      4952      4955      4957      4958
      4952      4955      4957      4959      4953      4952      4955      4956
      4953      4952      4955      4957      4954      4952      4955      4956
      4954      4952      4955      4957      4955      4957      4959      4960
      4955      4957      4959      4961      4955      4957      4959      4962
      4956      4955      4957      4958      4956      4955      4957      4959
      4957      4959      4962      4963      4957      4959      4962      4964
      4957      4959      4962      4965      4958      4957      4959      4960
      4958      4957      4959      4961      4958      4957      4959      4962
      4959      4962      4965      4966      4959      4962      4965      4967
      4959      4962      4965      4968      4960      4959      4962      4963
      4960      4959      4962      4964      4960      4959      4962      4965
      4961      4959      4962      4963      4961      4959      4962      4964
      4961      4959      4962      4965      4962      4965      4968      4969
      4962      4965      4968      4970      4962      4965      4968      4971
      4963      4962      4965      4966      4963      4962      4965      4967
      4963      4962      4965      4968      4964      4962      4965      4966
      4964      4962      4965      4967      4964      4962      4965      4968
      4965      4968      4971      4972      4965      4968      4971      4973
      4965      4968      4971      4974      4966      4965      4968      4969
      4966      4965      4968      4970      4966      4965      4968      4971
      4967      4965      4968      4969      4967      4965      4968      4970
      4967      4965      4968      4971      4968      4971      4974      4975
      4968      4971      4974      4976      4968      4971      4974      4977
      4969      4968      4971      4972      4969      4968      4971      4973
      4969      4968      4971      4974      4970      4968      4971      4972
      4970      4968      4971      4973      4970      4968      4971      4974
      4971      4974      4977      4978      4971      4974      4977      4979
      4971      4974      4977      4980      4972      4971      4974      4975
      4972      4971      4974      4976      4972      4971      4974      4977
      4973      4971      4974      4975      4973      4971      4974      4976
      4973      4971      4974      4977      4974      4977      4980      4981
      4974      4977      4980      4982      4974      4977      4980      4983
      4975      4974      4977      4978      4975      4974      4977      4979
      4975      4974      4977      4980      4976      4974      4977      4978
      4976      4974      4977      4979      4976      4974      4977      4980
      4978      4977      4980      4981      4978      4977      4980      4982
      4978      4977      4980      4983      4979      4977      4980      4981
      4979      4977      4980      4982      4979      4977      4980      4983
      4984      4987      4990      4991      4984      4987      4990      4992
      4984      4987      4990      4993      4985      4984      4987      4988
      4985      4984      4987      4989      4985      4984      4987      4990
      4986      4984      4987      4988      4986      4984      4987      4989
      4986      4984      4987      4990      4987      4990      4993      4994
      4987      4990      4993      4995      4987      4990      4993      4996
      4988      4987      4990      4991      4988      4987      4990      4992
      4988      4987      4990      4993      4989      4987      4990      4991
      4989      4987      4990      4992      4989      4987      4990      4993
      4990      4993      4996      4997      4990      4993      4996      4998
      4990      4993      4996      4999      4991      4990      4993      4994
      4991      4990      4993      4995      4991      4990      4993      4996
      4992      4990      4993      4994      4992      4990      4993      4995
      4992      4990      4993      4996      4993      4996      4999      5000
      4993      4996      4999      5001      4993      4996      4999      5002
      4994      4993      4996      4997      4994      4993      4996      4998
      4994      4993      4996      4999      4995      4993      4996      4997
      4995      4993      4996      4998      4995      4993      4996      4999
      4996      4999      5002      5003      4996      4999      5002      5004
      4996      4999      5002      5005      4997      4996      4999      5000
      4997      4996      4999      5001      4997      4996      4999      5002
      4998      4996      4999      5000      4998      4996      4999      5001
      4998      4996      4999      5002      4999      5002      5005      5006
      4999      5002      5005      5007      4999      5002      5005      5008
      5000      4999      5002      5003      5000      4999      5002      5004
      5000      4999      5002      5005      5001      4999      5002      5003
      5001      4999      5002      5004      5001      4999      5002      5005
      5002      5005      5008      5009      5002      5005      5008      5010
      5002      5005      5008      5011      5003      5002      5005      5006
      5003      5002      5005      5007      5003      5002      5005      5008
      5004      5002      5005      5006      5004      5002      5005      5007
      5004      5002      5005      5008      5005      5008      5011      5012
      5005      5008      5011      5013      5005      5008      5011      5014
      5006      5005      5008      5009      5006      5005      5008      5010
      5006      5005      5008      5011      5007      5005      5008      5009
      5007      5005      5008      5010      5007      5005      5008      5011
      5008      5011      5014      5015      5008      5011      5014      5016
      5008      5011      5014      5017      5009      5008      5011      5012
      5009      5008      5011      5013      5009      5008      5011      5014
      5010      5008      5011      5012      5010      5008      5011      5013
      5010      5008      5011      5014      5011      5014      5017      5018
      5011      5014      5017      5019      5011      5014      5017      5020
      5012      5011      5014      5015      5012      5011      5014      5016
      5012      5011      5014      5017      5013      5011      5014      5015
      5013      5011      5014      5016      5013      5011      5014      5017
      5014      5017      5020      5021      5014      5017      5020      5022
      5014      5017      5020      5023      5015      5014      5017      5018
      5015      5014      5017      5019      5015      5014      5017      5020
      5016      5014      5017      5018      5016      5014      5017      5019
      5016      5014      5017      5020      5017      5020      5023      5024
      5017      5020      5023      5025      5017      5020      5023      5026
      5018      5017      5020      5021      5018      5017      5020      5022
      5018      5017      5020      5023      5019      5017      5020      5021
      5019      5017      5020      5022      5019      5017      5020      5023
      5021      5020      5023      5024      5021      5020      5023      5025
      5021      5020      5023      5026      5022      5020      5023      5024
      5022      5020      5023      5025      5022      5020      5023      5026
      5027      5028      5043      5044      5027      5028      5043      5045
      5027      5028      5043      5049      5028      5027      5031      5032
      5028      5027      5031      5033      5028      5027      5031      5034
      5028      5027      5035      5036      5028      5027      5035      5037
      5028      5027      5035      5038      5028      5027      5039      5040
      5028      5027      5039      5041      5028      5027      5039      5042
      5028      5043      5049      5046      5029      5028      5027      5031
      5029      5028      5027      5035      5029      5028      5027      5039
      5029      5028      5043      5044      5029      5028      5043      5045
      5029      5028      5043      5049      5030      5028      5027      5031
      5030      5028      5027      5035      5030      5028      5027      5039
      5030      5028      5043      5044      5030      5028      5043      5045
      5030      5028      5043      5049      5031      5027      5028      5043
      5031      5027      5035      5036      5031      5027      5035      5037
      5031      5027      5035      5038      5031      5027      5039      5040
      5031      5027      5039      5041      5031      5027      5039      5042
      5032      5031      5027      5035      5032      5031      5027      5039
      5033      5031      5027      5035      5033      5031      5027      5039
      5034      5031      5027      5035      5034      5031      5027      5039
      5035      5027      5028      5043      5035      5027      5039      5040
      5035      5027      5039      5041      5035      5027      5039      5042
      5036      5035      5027      5039      5037      5035      5027      5039
      5038      5035      5027      5039      5039      5027      5028      5043
      5043      5049      5046      5047      5043      5049      5046      5048
      5043      5049      5046      5050      5044      5043      5049      5046
      5045      5043      5049      5046      5046      5050      5051      5052
      5046      5050      5051      5053      5046      5050      5051      5054
      5047      5046      5050      5051      5048      5046      5050      5051
      5049      5046      5050      5051      5050      5051      5054      5055
      5050      5051      5054      5056      5050      5051      5054      5062
      5051      5054      5056      5057      5051      5054      5062      5063
      5051      5054      5062      5064      5051      5054      5062      5065
      5052      5051      5054      5055      5052      5051      5054      5056
      5052      5051      5054      5062      5053      5051      5054      5055
      5053      5051      5054      5056      5053      5051      5054      5062
      5054      5056      5057      5058      5054      5056      5057      5059
      5054      5062      5065      5066      5055      5054      5056      5057
      5055      5054      5062      5063      5055      5054      5062      5064
      5055      5054      5062      5065      5056      5054      5062      5063
      5056      5054      5062      5064      5056      5054      5062      5065
      5056      5057      5059      5060      5056      5057      5059      5061
      5056      5057      5059      5071      5057      5056      5054      5062
      5057      5059      5071      5072      5057      5059      5071      5073
      5057      5059      5071      5074      5058      5057      5059      5060
      5058      5057      5059      5061      5058      5057      5059      5071
      5059      5071      5074      5075      5059      5071      5074      5076
      5059      5071      5074      5077      5060      5059      5071      5072
      5060      5059      5071      5073      5060      5059      5071      5074
      5061      5059      5071      5072      5061      5059      5071      5073
      5061      5059      5071      5074      5062      5065      5066      5067
      5062      5065      5066      5068      5063      5062      5065      5066
      5064      5062      5065      5066      5065      5066      5068      5069
      5065      5066      5068      5070      5065      5066      5068      5118
      5066      5068      5118      5119      5066      5068      5118      5120
      5066      5068      5118      5121      5067      5066      5068      5069
      5067      5066      5068      5070      5067      5066      5068      5118
      5068      5118      5121      5122      5068      5118      5121      5123
      5068      5118      5121      5124      5069      5068      5118      5119
      5069      5068      5118      5120      5069      5068      5118      5121
      5070      5068      5118      5119      5070      5068      5118      5120
      5070      5068      5118      5121      5071      5074      5077      5078
      5071      5074      5077      5079      5071      5074      5077      5080
      5072      5071      5074      5075      5072      5071      5074      5076
      5072      5071      5074      5077      5073      5071      5074      5075
      5073      5071      5074      5076      5073      5071      5074      5077
      5074      5077      5080      5081      5074      5077      5080      5082
      5074      5077      5080      5083      5075      5074      5077      5078
      5075      5074      5077      5079      5075      5074      5077      5080
      5076      5074      5077      5078      5076      5074      5077      5079
      5076      5074      5077      5080      5077      5080      5083      5084
      5077      5080      5083      5085      5077      5080      5083      5086
      5078      5077      5080      5081      5078      5077      5080      5082
      5078      5077      5080      5083      5079      5077      5080      5081
      5079      5077      5080      5082      5079      5077      5080      5083
      5080      5083      5086      5087      5080      5083      5086      5088
      5080      5083      5086      5089      5081      5080      5083      5084
      5081      5080      5083      5085      5081      5080      5083      5086
      5082      5080      5083      5084      5082      5080      5083      5085
      5082      5080      5083      5086      5083      5086      5089      5090
      5083      5086      5089      5091      5084      5083      5086      5087
      5084      5083      5086      5088      5084      5083      5086      5089
      5085      5083      5086      5087      5085      5083      5086      5088
      5085      5083      5086      5089      5086      5089      5091      5092
      5086      5089      5091      5093      5087      5086      5089      5090
      5087      5086      5089      5091      5088      5086      5089      5090
      5088      5086      5089      5091      5089      5091      5093      5094
      5089      5091      5093      5095      5089      5091      5093      5096
      5090      5089      5091      5092      5090      5089      5091      5093
      5091      5093      5096      5097      5091      5093      5096      5098
      5091      5093      5096      5099      5092      5091      5093      5094
      5092      5091      5093      5095      5092      5091      5093      5096
      5093      5096      5099      5100      5093      5096      5099      5101
      5093      5096      5099      5102      5094      5093      5096      5097
      5094      5093      5096      5098      5094      5093      5096      5099
      5095      5093      5096      5097      5095      5093      5096      5098
      5095      5093      5096      5099      5096      5099      5102      5103
      5096      5099      5102      5104      5096      5099      5102      5105
      5097      5096      5099      5100      5097      5096      5099      5101
      5097      5096      5099      5102      5098      5096      5099      5100
      5098      5096      5099      5101      5098      5096      5099      5102
      5099      5102      5105      5106      5099      5102      5105      5107
      5099      5102      5105      5108      5100      5099      5102      5103
      5100      5099      5102      5104      5100      5099      5102      5105
      5101      5099      5102      5103      5101      5099      5102      5104
      5101      5099      5102      5105      5102      5105      5108      5109
      5102      5105      5108      5110      5102      5105      5108      5111
      5103      5102      5105      5106      5103      5102      5105      5107
      5103      5102      5105      5108      5104      5102      5105      5106
      5104      5102      5105      5107      5104      5102      5105      5108
      5105      5108      5111      5112      5105      5108      5111      5113
      5105      5108      5111      5114      5106      5105      5108      5109
      5106      5105      5108      5110      5106      5105      5108      5111
      5107      5105      5108      5109      5107      5105      5108      5110
      5107      5105      5108      5111      5108      5111      5114      5115
      5108      5111      5114      5116      5108      5111      5114      5117
      5109      5108      5111      5112      5109      5108      5111      5113
      5109      5108      5111      5114      5110      5108      5111      5112
      5110      5108      5111      5113      5110      5108      5111      5114
      5112      5111      5114      5115      5112      5111      5114      5116
      5112      5111      5114      5117      5113      5111      5114      5115
      5113      5111      5114      5116      5113      5111      5114      5117
      5118      5121      5124      5125      5118      5121      5124      5126
      5118      5121      5124      5127      5119      5118      5121      5122
      5119      5118      5121      5123      5119      5118      5121      5124
      5120      5118      5121      5122      5120      5118      5121      5123
      5120      5118      5121      5124      5121      5124      5127      5128
      5121      5124      5127      5129      5121      5124      5127      5130
      5122      5121      5124      5125      5122      5121      5124      5126
      5122      5121      5124      5127      5123      5121      5124      5125
      5123      5121      5124      5126      5123      5121      5124      5127
      5124      5127      5130      5131      5124      5127      5130      5132
      5124      5127      5130      5133      5125      5124      5127      5128
      5125      5124      5127      5129      5125      5124      5127      5130
      5126      5124      5127      5128      5126      5124      5127      5129
      5126      5124      5127      5130      5127      5130      5133      5134
      5127      5130      5133      5135      5127      5130      5133      5136
      5128      5127      5130      5131      5128      5127      5130      5132
      5128      5127      5130      5133      5129      5127      5130      5131
      5129      5127      5130      5132      5129      5127      5130      5133
      5130      5133      5136      5137      5130      5133      5136      5138
      5130      5133      5136      5139      5131      5130      5133      5134
      5131      5130      5133      5135      5131      5130      5133      5136
      5132      5130      5133      5134      5132      5130      5133      5135
      5132      5130      5133      5136      5133      5136      5139      5140
      5133      5136      5139      5141      5133      5136      5139      5142
      5134      5133      5136      5137      5134      5133      5136      5138
      5134      5133      5136      5139      5135      5133      5136      5137
      5135      5133      5136      5138      5135      5133      5136      5139
      5136      5139      5142      5143      5136      5139      5142      5144
      5136      5139      5142      5145      5137      5136      5139      5140
      5137      5136      5139      5141      5137      5136      5139      5142
      5138      5136      5139      5140      5138      5136      5139      5141
      5138      5136      5139      5142      5139      5142      5145      5146
      5139      5142      5145      5147      5139      5142      5145      5148
      5140      5139      5142      5143      5140      5139      5142      5144
      5140      5139      5142      5145      5141      5139      5142      5143
      5141      5139      5142      5144      5141      5139      5142      5145
      5142      5145      5148      5149      5142      5145      5148      5150
      5142      5145      5148      5151      5143      5142      5145      5146
      5143      5142      5145      5147      5143      5142      5145      5148
      5144      5142      5145      5146      5144      5142      5145      5147
      5144      5142      5145      5148      5145      5148      5151      5152
      5145      5148      5151      5153      5145      5148      5151      5154
      5146      5145      5148      5149      5146      5145      5148      5150
      5146      5145      5148      5151      5147      5145      5148      5149
      5147      5145      5148      5150      5147      5145      5148      5151
      5148      5151      5154      5155      5148      5151      5154      5156
      5148      5151      5154      5157      5149      5148      5151      5152
      5149      5148      5151      5153      5149      5148      5151      5154
      5150      5148      5151      5152      5150      5148      5151      5153
      5150      5148      5151      5154      5151      5154      5157      5158
      5151      5154      5157      5159      5151      5154      5157      5160
      5152      5151      5154      5155      5152      5151      5154      5156
      5152      5151      5154      5157      5153      5151      5154      5155
      5153      5151      5154      5156      5153      5151      5154      5157
      5155      5154      5157      5158      5155      5154      5157      5159
      5155      5154      5157      5160      5156      5154      5157      5158
      5156      5154      5157      5159      5156      5154      5157      5160
      5161      5162      5177      5178      5161      5162      5177      5179
      5161      5162      5177      5183      5162      5161      5165      5166
      5162      5161      5165      5167      5162      5161      5165      5168
      5162      5161      5169      5170      5162      5161      5169      5171
      5162      5161      5169      5172      5162      5161      5173      5174
      5162      5161      5173      5175      5162      5161      5173      5176
      5162      5177      5183      5180      5163      5162      5161      5165
      5163      5162      5161      5169      5163      5162      5161      5173
      5163      5162      5177      5178      5163      5162      5177      5179
      5163      5162      5177      5183      5164      5162      5161      5165
      5164      5162      5161      5169      5164      5162      5161      5173
      5164      5162      5177      5178      5164      5162      5177      5179
      5164      5162      5177      5183      5165      5161      5162      5177
      5165      5161      5169      5170      5165      5161      5169      5171
      5165      5161      5169      5172      5165      5161      5173      5174
      5165      5161      5173      5175      5165      5161      5173      5176
      5166      5165      5161      5169      5166      5165      5161      5173
      5167      5165      5161      5169      5167      5165      5161      5173
      5168      5165      5161      5169      5168      5165      5161      5173
      5169      5161      5162      5177      5169      5161      5173      5174
      5169      5161      5173      5175      5169      5161      5173      5176
      5170      5169      5161      5173      5171      5169      5161      5173
      5172      5169      5161      5173      5173      5161      5162      5177
      5177      5183      5180      5181      5177      5183      5180      5182
      5177      5183      5180      5184      5178      5177      5183      5180
      5179      5177      5183      5180      5180      5184      5185      5186
      5180      5184      5185      5187      5180      5184      5185      5188
      5181      5180      5184      5185      5182      5180      5184      5185
      5183      5180      5184      5185      5184      5185      5188      5189
      5184      5185      5188      5190      5184      5185      5188      5196
      5185      5188      5190      5191      5185      5188      5196      5197
      5185      5188      5196      5198      5185      5188      5196      5199
      5186      5185      5188      5189      5186      5185      5188      5190
      5186      5185      5188      5196      5187      5185      5188      5189
      5187      5185      5188      5190      5187      5185      5188      5196
      5188      5190      5191      5192      5188      5190      5191      5193
      5188      5196      5199      5200      5189      5188      5190      5191
      5189      5188      5196      5197      5189      5188      5196      5198
      5189      5188      5196      5199      5190      5188      5196      5197
      5190      5188      5196      5198      5190      5188      5196      5199
      5190      5191      5193      5194      5190      5191      5193      5195
      5190      5191      5193      5205      5191      5190      5188      5196
      5191      5193      5205      5206      5191      5193      5205      5207
      5191      5193      5205      5208      5192      5191      5193      5194
      5192      5191      5193      5195      5192      5191      5193      5205
      5193      5205      5208      5209      5193      5205      5208      5210
      5193      5205      5208      5211      5194      5193      5205      5206
      5194      5193      5205      5207      5194      5193      5205      5208
      5195      5193      5205      5206      5195      5193      5205      5207
      5195      5193      5205      5208      5196      5199      5200      5201
      5196      5199      5200      5202      5197      5196      5199      5200
      5198      5196      5199      5200      5199      5200      5202      5203
      5199      5200      5202      5204      5199      5200      5202      5252
      5200      5202      5252      5253      5200      5202      5252      5254
      5200      5202      5252      5255      5201      5200      5202      5203
      5201      5200      5202      5204      5201      5200      5202      5252
      5202      5252      5255      5256      5202      5252      5255      5257
      5202      5252      5255      5258      5203      5202      5252      5253
      5203      5202      5252      5254      5203      5202      5252      5255
      5204      5202      5252      5253      5204      5202      5252      5254
      5204      5202      5252      5255      5205      5208      5211      5212
      5205      5208      5211      5213      5205      5208      5211      5214
      5206      5205      5208      5209      5206      5205      5208      5210
      5206      5205      5208      5211      5207      5205      5208      5209
      5207      5205      5208      5210      5207      5205      5208      5211
      5208      5211      5214      5215      5208      5211      5214      5216
      5208      5211      5214      5217      5209      5208      5211      5212
      5209      5208      5211      5213      5209      5208      5211      5214
      5210      5208      5211      5212      5210      5208      5211      5213
      5210      5208      5211      5214      5211      5214      5217      5218
      5211      5214      5217      5219      5211      5214      5217      5220
      5212      5211      5214      5215      5212      5211      5214      5216
      5212      5211      5214      5217      5213      5211      5214      5215
      5213      5211      5214      5216      5213      5211      5214      5217
      5214      5217      5220      5221      5214      5217      5220      5222
      5214      5217      5220      5223      5215      5214      5217      5218
      5215      5214      5217      5219      5215      5214      5217      5220
      5216      5214      5217      5218      5216      5214      5217      5219
      5216      5214      5217      5220      5217      5220      5223      5224
      5217      5220      5223      5225      5218      5217      5220      5221
      5218      5217      5220      5222      5218      5217      5220      5223
      5219      5217      5220      5221      5219      5217      5220      5222
      5219      5217      5220      5223      5220      5223      5225      5226
      5220      5223      5225      5227      5221      5220      5223      5224
      5221      5220      5223      5225      5222      5220      5223      5224
      5222      5220      5223      5225      5223      5225      5227      5228
      5223      5225      5227      5229      5223      5225      5227      5230
      5224      5223      5225      5226      5224      5223      5225      5227
      5225      5227      5230      5231      5225      5227      5230      5232
      5225      5227      5230      5233      5226      5225      5227      5228
      5226      5225      5227      5229      5226      5225      5227      5230
      5227      5230      5233      5234      5227      5230      5233      5235
      5227      5230      5233      5236      5228      5227      5230      5231
      5228      5227      5230      5232      5228      5227      5230      5233
      5229      5227      5230      5231      5229      5227      5230      5232
      5229      5227      5230      5233      5230      5233      5236      5237
      5230      5233      5236      5238      5230      5233      5236      5239
      5231      5230      5233      5234      5231      5230      5233      5235
      5231      5230      5233      5236      5232      5230      5233      5234
      5232      5230      5233      5235      5232      5230      5233      5236
      5233      5236      5239      5240      5233      5236      5239      5241
      5233      5236      5239      5242      5234      5233      5236      5237
      5234      5233      5236      5238      5234      5233      5236      5239
      5235      5233      5236      5237      5235      5233      5236      5238
      5235      5233      5236      5239      5236      5239      5242      5243
      5236      5239      5242      5244      5236      5239      5242      5245
      5237      5236      5239      5240      5237      5236      5239      5241
      5237      5236      5239      5242      5238      5236      5239      5240
      5238      5236      5239      5241      5238      5236      5239      5242
      5239      5242      5245      5246      5239      5242      5245      5247
      5239      5242      5245      5248      5240      5239      5242      5243
      5240      5239      5242      5244      5240      5239      5242      5245
      5241      5239      5242      5243      5241      5239      5242      5244
      5241      5239      5242      5245      5242      5245      5248      5249
      5242      5245      5248      5250      5242      5245      5248      5251
      5243      5242      5245      5246      5243      5242      5245      5247
      5243      5242      5245      5248      5244      5242      5245      5246
      5244      5242      5245      5247      5244      5242      5245      5248
      5246      5245      5248      5249      5246      5245      5248      5250
      5246      5245      5248      5251      5247      5245      5248      5249
      5247      5245      5248      5250      5247      5245      5248      5251
      5252      5255      5258      5259      5252      5255      5258      5260
      5252      5255      5258      5261      5253      5252      5255      5256
      5253      5252      5255      5257      5253      5252      5255      5258
      5254      5252      5255      5256      5254      5252      5255      5257
      5254      5252      5255      5258      5255      5258      5261      5262
      5255      5258      5261      5263      5255      5258      5261      5264
      5256      5255      5258      5259      5256      5255      5258      5260
      5256      5255      5258      5261      5257      5255      5258      5259
      5257      5255      5258      5260      5257      5255      5258      5261
      5258      5261      5264      5265      5258      5261      5264      5266
      5258      5261      5264      5267      5259      5258      5261      5262
      5259      5258      5261      5263      5259      5258      5261      5264
      5260      5258      5261      5262      5260      5258      5261      5263
      5260      5258      5261      5264      5261      5264      5267      5268
      5261      5264      5267      5269      5261      5264      5267      5270
      5262      5261      5264      5265      5262      5261      5264      5266
      5262      5261      5264      5267      5263      5261      5264      5265
      5263      5261      5264      5266      5263      5261      5264      5267
      5264      5267      5270      5271      5264      5267      5270      5272
      5264      5267      5270      5273      5265      5264      5267      5268
      5265      5264      5267      5269      5265      5264      5267      5270
      5266      5264      5267      5268      5266      5264      5267      5269
      5266      5264      5267      5270      5267      5270      5273      5274
      5267      5270      5273      5275      5267      5270      5273      5276
      5268      5267      5270      5271      5268      5267      5270      5272
      5268      5267      5270      5273      5269      5267      5270      5271
      5269      5267      5270      5272      5269      5267      5270      5273
      5270      5273      5276      5277      5270      5273      5276      5278
      5270      5273      5276      5279      5271      5270      5273      5274
      5271      5270      5273      5275      5271      5270      5273      5276
      5272      5270      5273      5274      5272      5270      5273      5275
      5272      5270      5273      5276      5273      5276      5279      5280
      5273      5276      5279      5281      5273      5276      5279      5282
      5274      5273      5276      5277      5274      5273      5276      5278
      5274      5273      5276      5279      5275      5273      5276      5277
      5275      5273      5276      5278      5275      5273      5276      5279
      5276      5279      5282      5283      5276      5279      5282      5284
      5276      5279      5282      5285      5277      5276      5279      5280
      5277      5276      5279      5281      5277      5276      5279      5282
      5278      5276      5279      5280      5278      5276      5279      5281
      5278      5276      5279      5282      5279      5282      5285      5286
      5279      5282      5285      5287      5279      5282      5285      5288
      5280      5279      5282      5283      5280      5279      5282      5284
      5280      5279      5282      5285      5281      5279      5282      5283
      5281      5279      5282      5284      5281      5279      5282      5285
      5282      5285      5288      5289      5282      5285      5288      5290
      5282      5285      5288      5291      5283      5282      5285      5286
      5283      5282      5285      5287      5283      5282      5285      5288
      5284      5282      5285      5286      5284      5282      5285      5287
      5284      5282      5285      5288      5285      5288      5291      5292
      5285      5288      5291      5293      5285      5288      5291      5294
      5286      5285      5288      5289      5286      5285      5288      5290
      5286      5285      5288      5291      5287      5285      5288      5289
      5287      5285      5288      5290      5287      5285      5288      5291
      5289      5288      5291      5292      5289      5288      5291      5293
      5289      5288      5291      5294      5290      5288      5291      5292
      5290      5288      5291      5293      5290      5288      5291      5294
      5295      5296      5311      5312      5295      5296      5311      5313
      5295      5296      5311      5317      5296      5295      5299      5300
      5296      5295      5299      5301      5296      5295      5299      5302
      5296      5295      5303      5304      5296      5295      5303      5305
      5296      5295      5303      5306      5296      5295      5307      5308
      5296      5295      5307      5309      5296      5295      5307      5310
      5296      5311      5317      5314      5297      5296      5295      5299
      5297      5296      5295      5303      5297      5296      5295      5307
      5297      5296      5311      5312      5297      5296      5311      5313
      5297      5296      5311      5317      5298      5296      5295      5299
      5298      5296      5295      5303      5298      5296      5295      5307
      5298      5296      5311      5312      5298      5296      5311      5313
      5298      5296      5311      5317      5299      5295      5296      5311
      5299      5295      5303      5304      5299      5295      5303      5305
      5299      5295      5303      5306      5299      5295      5307      5308
      5299      5295      5307      5309      5299      5295      5307      5310
      5300      5299      5295      5303      5300      5299      5295      5307
      5301      5299      5295      5303      5301      5299      5295      5307
      5302      5299      5295      5303      5302      5299      5295      5307
      5303      5295      5296      5311      5303      5295      5307      5308
      5303      5295      5307      5309      5303      5295      5307      5310
      5304      5303      5295      5307      5305      5303      5295      5307
      5306      5303      5295      5307      5307      5295      5296      5311
      5311      5317      5314      5315      5311      5317      5314      5316
      5311      5317      5314      5318      5312      5311      5317      5314
      5313      5311      5317      5314      5314      5318      5319      5320
      5314      5318      5319      5321      5314      5318      5319      5322
      5315      5314      5318      5319      5316      5314      5318      5319
      5317      5314      5318      5319      5318      5319      5322      5323
      5318      5319      5322      5324      5318      5319      5322      5330
      5319      5322      5324      5325      5319      5322      5330      5331
      5319      5322      5330      5332      5319      5322      5330      5333
      5320      5319      5322      5323      5320      5319      5322      5324
      5320      5319      5322      5330      5321      5319      5322      5323
      5321      5319      5322      5324      5321      5319      5322      5330
      5322      5324      5325      5326      5322      5324      5325      5327
      5322      5330      5333      5334      5323      5322      5324      5325
      5323      5322      5330      5331      5323      5322      5330      5332
      5323      5322      5330      5333      5324      5322      5330      5331
      5324      5322      5330      5332      5324      5322      5330      5333
      5324      5325      5327      5328      5324      5325      5327      5329
      5324      5325      5327      5339      5325      5324      5322      5330
      5325      5327      5339      5340      5325      5327      5339      5341
      5325      5327      5339      5342      5326      5325      5327      5328
      5326      5325      5327      5329      5326      5325      5327      5339
      5327      5339      5342      5343      5327      5339      5342      5344
      5327      5339      5342      5345      5328      5327      5339      5340
      5328      5327      5339      5341      5328      5327      5339      5342
      5329      5327      5339      5340      5329      5327      5339      5341
      5329      5327      5339      5342      5330      5333      5334      5335
      5330      5333      5334      5336      5331      5330      5333      5334
      5332      5330      5333      5334      5333      5334      5336      5337
      5333      5334      5336      5338      5333      5334      5336      5386
      5334      5336      5386      5387      5334      5336      5386      5388
      5334      5336      5386      5389      5335      5334      5336      5337
      5335      5334      5336      5338      5335      5334      5336      5386
      5336      5386      5389      5390      5336      5386      5389      5391
      5336      5386      5389      5392      5337      5336      5386      5387
      5337      5336      5386      5388      5337      5336      5386      5389
      5338      5336      5386      5387      5338      5336      5386      5388
      5338      5336      5386      5389      5339      5342      5345      5346
      5339      5342      5345      5347      5339      5342      5345      5348
      5340      5339      5342      5343      5340      5339      5342      5344
      5340      5339      5342      5345      5341      5339      5342      5343
      5341      5339      5342      5344      5341      5339      5342      5345
      5342      5345      5348      5349      5342      5345      5348      5350
      5342      5345      5348      5351      5343      5342      5345      5346
      5343      5342      5345      5347      5343      5342      5345      5348
      5344      5342      5345      5346      5344      5342      5345      5347
      5344      5342      5345      5348      5345      5348      5351      5352
      5345      5348      5351      5353      5345      5348      5351      5354
      5346      5345      5348      5349      5346      5345      5348      5350
      5346      5345      5348      5351      5347      5345      5348      5349
      5347      5345      5348      5350      5347      5345      5348      5351
      5348      5351      5354      5355      5348      5351      5354      5356
      5348      5351      5354      5357      5349      5348      5351      5352
      5349      5348      5351      5353      5349      5348      5351      5354
      5350      5348      5351      5352      5350      5348      5351      5353
      5350      5348      5351      5354      5351      5354      5357      5358
      5351      5354      5357      5359      5352      5351      5354      5355
      5352      5351      5354      5356      5352      5351      5354      5357
      5353      5351      5354      5355      5353      5351      5354      5356
      5353      5351      5354      5357      5354      5357      5359      5360
      5354      5357      5359      5361      5355      5354      5357      5358
      5355      5354      5357      5359      5356      5354      5357      5358
      5356      5354      5357      5359      5357      5359      5361      5362
      5357      5359      5361      5363      5357      5359      5361      5364
      5358      5357      5359      5360      5358      5357      5359      5361
      5359      5361      5364      5365      5359      5361      5364      5366
      5359      5361      5364      5367      5360      5359      5361      5362
      5360      5359      5361      5363      5360      5359      5361      5364
      5361      5364      5367      5368      5361      5364      5367      5369
      5361      5364      5367      5370      5362      5361      5364      5365
      5362      5361      5364      5366      5362      5361      5364      5367
      5363      5361      5364      5365      5363      5361      5364      5366
      5363      5361      5364      5367      5364      5367      5370      5371
      5364      5367      5370      5372      5364      5367      5370      5373
      5365      5364      5367      5368      5365      5364      5367      5369
      5365      5364      5367      5370      5366      5364      5367      5368
      5366      5364      5367      5369      5366      5364      5367      5370
      5367      5370      5373      5374      5367      5370      5373      5375
      5367      5370      5373      5376      5368      5367      5370      5371
      5368      5367      5370      5372      5368      5367      5370      5373
      5369      5367      5370      5371      5369      5367      5370      5372
      5369      5367      5370      5373      5370      5373      5376      5377
      5370      5373      5376      5378      5370      5373      5376      5379
      5371      5370      5373      5374      5371      5370      5373      5375
      5371      5370      5373      5376      5372      5370      5373      5374
      5372      5370      5373      5375      5372      5370      5373      5376
      5373      5376      5379      5380      5373      5376      5379      5381
      5373      5376      5379      5382      5374      5373      5376      5377
      5374      5373      5376      5378      5374      5373      5376      5379
      5375      5373      5376      5377      5375      5373      5376      5378
      5375      5373      5376      5379      5376      5379      5382      5383
      5376      5379      5382      5384      5376      5379      5382      5385
      5377      5376      5379      5380      5377      5376      5379      5381
      5377      5376      5379      5382      5378      5376      5379      5380
      5378      5376      5379      5381      5378      5376      5379      5382
      5380      5379      5382      5383      5380      5379      5382      5384
      5380      5379      5382      5385      5381      5379      5382      5383
      5381      5379      5382      5384      5381      5379      5382      5385
      5386      5389      5392      5393      5386      5389      5392      5394
      5386      5389      5392      5395      5387      5386      5389      5390
      5387      5386      5389      5391      5387      5386      5389      5392
      5388      5386      5389      5390      5388      5386      5389      5391
      5388      5386      5389      5392      5389      5392      5395      5396
      5389      5392      5395      5397      5389      5392      5395      5398
      5390      5389      5392      5393      5390      5389      5392      5394
      5390      5389      5392      5395      5391      5389      5392      5393
      5391      5389      5392      5394      5391      5389      5392      5395
      5392      5395      5398      5399      5392      5395      5398      5400
      5392      5395      5398      5401      5393      5392      5395      5396
      5393      5392      5395      5397      5393      5392      5395      5398
      5394      5392      5395      5396      5394      5392      5395      5397
      5394      5392      5395      5398      5395      5398      5401      5402
      5395      5398      5401      5403      5395      5398      5401      5404
      5396      5395      5398      5399      5396      5395      5398      5400
      5396      5395      5398      5401      5397      5395      5398      5399
      5397      5395      5398      5400      5397      5395      5398      5401
      5398      5401      5404      5405      5398      5401      5404      5406
      5398      5401      5404      5407      5399      5398      5401      5402
      5399      5398      5401      5403      5399      5398      5401      5404
      5400      5398      5401      5402      5400      5398      5401      5403
      5400      5398      5401      5404      5401      5404      5407      5408
      5401      5404      5407      5409      5401      5404      5407      5410
      5402      5401      5404      5405      5402      5401      5404      5406
      5402      5401      5404      5407      5403      5401      5404      5405
      5403      5401      5404      5406      5403      5401      5404      5407
      5404      5407      5410      5411      5404      5407      5410      5412
      5404      5407      5410      5413      5405      5404      5407      5408
      5405      5404      5407      5409      5405      5404      5407      5410
      5406      5404      5407      5408      5406      5404      5407      5409
      5406      5404      5407      5410      5407      5410      5413      5414
      5407      5410      5413      5415      5407      5410      5413      5416
      5408      5407      5410      5411      5408      5407      5410      5412
      5408      5407      5410      5413      5409      5407      5410      5411
      5409      5407      5410      5412      5409      5407      5410      5413
      5410      5413      5416      5417      5410      5413      5416      5418
      5410      5413      5416      5419      5411      5410      5413      5414
      5411      5410      5413      5415      5411      5410      5413      5416
      5412      5410      5413      5414      5412      5410      5413      5415
      5412      5410      5413      5416      5413      5416      5419      5420
      5413      5416      5419      5421      5413      5416      5419      5422
      5414      5413      5416      5417      5414      5413      5416      5418
      5414      5413      5416      5419      5415      5413      5416      5417
      5415      5413      5416      5418      5415      5413      5416      5419
      5416      5419      5422      5423      5416      5419      5422      5424
      5416      5419      5422      5425      5417      5416      5419      5420
      5417      5416      5419      5421      5417      5416      5419      5422
      5418      5416      5419      5420      5418      5416      5419      5421
      5418      5416      5419      5422      5419      5422      5425      5426
      5419      5422      5425      5427      5419      5422      5425      5428
      5420      5419      5422      5423      5420      5419      5422      5424
      5420      5419      5422      5425      5421      5419      5422      5423
      5421      5419      5422      5424      5421      5419      5422      5425
      5423      5422      5425      5426      5423      5422      5425      5427
      5423      5422      5425      5428      5424      5422      5425      5426
      5424      5422      5425      5427      5424      5422      5425      5428
      5429      5430      5445      5446      5429      5430      5445      5447
      5429      5430      5445      5451      5430      5429      5433      5434
      5430      5429      5433      5435      5430      5429      5433      5436
      5430      5429      5437      5438      5430      5429      5437      5439
      5430      5429      5437      5440      5430      5429      5441      5442
      5430      5429      5441      5443      5430      5429      5441      5444
      5430      5445      5451      5448      5431      5430      5429      5433
      5431      5430      5429      5437      5431      5430      5429      5441
      5431      5430      5445      5446      5431      5430      5445      5447
      5431      5430      5445      5451      5432      5430      5429      5433
      5432      5430      5429      5437      5432      5430      5429      5441
      5432      5430      5445      5446      5432      5430      5445      5447
      5432      5430      5445      5451      5433      5429      5430      5445
      5433      5429      5437      5438      5433      5429      5437      5439
      5433      5429      5437      5440      5433      5429      5441      5442
      5433      5429      5441      5443      5433      5429      5441      5444
      5434      5433      5429      5437      5434      5433      5429      5441
      5435      5433      5429      5437      5435      5433      5429      5441
      5436      5433      5429      5437      5436      5433      5429      5441
      5437      5429      5430      5445      5437      5429      5441      5442
      5437      5429      5441      5443      5437      5429      5441      5444
      5438      5437      5429      5441      5439      5437      5429      5441
      5440      5437      5429      5441      5441      5429      5430      5445
      5445      5451      5448      5449      5445      5451      5448      5450
      5445      5451      5448      5452      5446      5445      5451      5448
      5447      5445      5451      5448      5448      5452      5453      5454
      5448      5452      5453      5455      5448      5452      5453      5456
      5449      5448      5452      5453      5450      5448      5452      5453
      5451      5448      5452      5453      5452      5453      5456      5457
      5452      5453      5456      5458      5452      5453      5456      5464
      5453      5456      5458      5459      5453      5456      5464      5465
      5453      5456      5464      5466      5453      5456      5464      5467
      5454      5453      5456      5457      5454      5453      5456      5458
      5454      5453      5456      5464      5455      5453      5456      5457
      5455      5453      5456      5458      5455      5453      5456      5464
      5456      5458      5459      5460      5456      5458      5459      5461
      5456      5464      5467      5468      5457      5456      5458      5459
      5457      5456      5464      5465      5457      5456      5464      5466
      5457      5456      5464      5467      5458      5456      5464      5465
      5458      5456      5464      5466      5458      5456      5464      5467
      5458      5459      5461      5462      5458      5459      5461      5463
      5458      5459      5461      5473      5459      5458      5456      5464
      5459      5461      5473      5474      5459      5461      5473      5475
      5459      5461      5473      5476      5460      5459      5461      5462
      5460      5459      5461      5463      5460      5459      5461      5473
      5461      5473      5476      5477      5461      5473      5476      5478
      5461      5473      5476      5479      5462      5461      5473      5474
      5462      5461      5473      5475      5462      5461      5473      5476
      5463      5461      5473      5474      5463      5461      5473      5475
      5463      5461      5473      5476      5464      5467      5468      5469
      5464      5467      5468      5470      5465      5464      5467      5468
      5466      5464      5467      5468      5467      5468      5470      5471
      5467      5468      5470      5472      5467      5468      5470      5520
      5468      5470      5520      5521      5468      5470      5520      5522
      5468      5470      5520      5523      5469      5468      5470      5471
      5469      5468      5470      5472      5469      5468      5470      5520
      5470      5520      5523      5524      5470      5520      5523      5525
      5470      5520      5523      5526      5471      5470      5520      5521
      5471      5470      5520      5522      5471      5470      5520      5523
      5472      5470      5520      5521      5472      5470      5520      5522
      5472      5470      5520      5523      5473      5476      5479      5480
      5473      5476      5479      5481      5473      5476      5479      5482
      5474      5473      5476      5477      5474      5473      5476      5478
      5474      5473      5476      5479      5475      5473      5476      5477
      5475      5473      5476      5478      5475      5473      5476      5479
      5476      5479      5482      5483      5476      5479      5482      5484
      5476      5479      5482      5485      5477      5476      5479      5480
      5477      5476      5479      5481      5477      5476      5479      5482
      5478      5476      5479      5480      5478      5476      5479      5481
      5478      5476      5479      5482      5479      5482      5485      5486
      5479      5482      5485      5487      5479      5482      5485      5488
      5480      5479      5482      5483      5480      5479      5482      5484
      5480      5479      5482      5485      5481      5479      5482      5483
      5481      5479      5482      5484      5481      5479      5482      5485
      5482      5485      5488      5489      5482      5485      5488      5490
      5482      5485      5488      5491      5483      5482      5485      5486
      5483      5482      5485      5487      5483      5482      5485      5488
      5484      5482      5485      5486      5484      5482      5485      5487
      5484      5482      5485      5488      5485      5488      5491      5492
      5485      5488      5491      5493      5486      5485      5488      5489
      5486      5485      5488      5490      5486      5485      5488      5491
      5487      5485      5488      5489      5487      5485      5488      5490
      5487      5485      5488      5491      5488      5491      5493      5494
      5488      5491      5493      5495      5489      5488      5491      5492
      5489      5488      5491      5493      5490      5488      5491      5492
      5490      5488      5491      5493      5491      5493      5495      5496
      5491      5493      5495      5497      5491      5493      5495      5498
      5492      5491      5493      5494      5492      5491      5493      5495
      5493      5495      5498      5499      5493      5495      5498      5500
      5493      5495      5498      5501      5494      5493      5495      5496
      5494      5493      5495      5497      5494      5493      5495      5498
      5495      5498      5501      5502      5495      5498      5501      5503
      5495      5498      5501      5504      5496      5495      5498      5499
      5496      5495      5498      5500      5496      5495      5498      5501
      5497      5495      5498      5499      5497      5495      5498      5500
      5497      5495      5498      5501      5498      5501      5504      5505
      5498      5501      5504      5506      5498      5501      5504      5507
      5499      5498      5501      5502      5499      5498      5501      5503
      5499      5498      5501      5504      5500      5498      5501      5502
      5500      5498      5501      5503      5500      5498      5501      5504
      5501      5504      5507      5508      5501      5504      5507      5509
      5501      5504      5507      5510      5502      5501      5504      5505
      5502      5501      5504      5506      5502      5501      5504      5507
      5503      5501      5504      5505      5503      5501      5504      5506
      5503      5501      5504      5507      5504      5507      5510      5511
      5504      5507      5510      5512      5504      5507      5510      5513
      5505      5504      5507      5508      5505      5504      5507      5509
      5505      5504      5507      5510      5506      5504      5507      5508
      5506      5504      5507      5509      5506      5504      5507      5510
      5507      5510      5513      5514      5507      5510      5513      5515
      5507      5510      5513      5516      5508      5507      5510      5511
      5508      5507      5510      5512      5508      5507      5510      5513
      5509      5507      5510      5511      5509      5507      5510      5512
      5509      5507      5510      5513      5510      5513      5516      5517
      5510      5513      5516      5518      5510      5513      5516      5519
      5511      5510      5513      5514      5511      5510      5513      5515
      5511      5510      5513      5516      5512      5510      5513      5514
      5512      5510      5513      5515      5512      5510      5513      5516
      5514      5513      5516      5517      5514      5513      5516      5518
      5514      5513      5516      5519      5515      5513      5516      5517
      5515      5513      5516      5518      5515      5513      5516      5519
      5520      5523      5526      5527      5520      5523      5526      5528
      5520      5523      5526      5529      5521      5520      5523      5524
      5521      5520      5523      5525      5521      5520      5523      5526
      5522      5520      5523      5524      5522      5520      5523      5525
      5522      5520      5523      5526      5523      5526      5529      5530
      5523      5526      5529      5531      5523      5526      5529      5532
      5524      5523      5526      5527      5524      5523      5526      5528
      5524      5523      5526      5529      5525      5523      5526      5527
      5525      5523      5526      5528      5525      5523      5526      5529
      5526      5529      5532      5533      5526      5529      5532      5534
      5526      5529      5532      5535      5527      5526      5529      5530
      5527      5526      5529      5531      5527      5526      5529      5532
      5528      5526      5529      5530      5528      5526      5529      5531
      5528      5526      5529      5532      5529      5532      5535      5536
      5529      5532      5535      5537      5529      5532      5535      5538
      5530      5529      5532      5533      5530      5529      5532      5534
      5530      5529      5532      5535      5531      5529      5532      5533
      5531      5529      5532      5534      5531      5529      5532      5535
      5532      5535      5538      5539      5532      5535      5538      5540
      5532      5535      5538      5541      5533      5532      5535      5536
      5533      5532      5535      5537      5533      5532      5535      5538
      5534      5532      5535      5536      5534      5532      5535      5537
      5534      5532      5535      5538      5535      5538      5541      5542
      5535      5538      5541      5543      5535      5538      5541      5544
      5536      5535      5538      5539      5536      5535      5538      5540
      5536      5535      5538      5541      5537      5535      5538      5539
      5537      5535      5538      5540      5537      5535      5538      5541
      5538      5541      5544      5545      5538      5541      5544      5546
      5538      5541      5544      5547      5539      5538      5541      5542
      5539      5538      5541      5543      5539      5538      5541      5544
      5540      5538      5541      5542      5540      5538      5541      5543
      5540      5538      5541      5544      5541      5544      5547      5548
      5541      5544      5547      5549      5541      5544      5547      5550
      5542      5541      5544      5545      5542      5541      5544      5546
      5542      5541      5544      5547      5543      5541      5544      5545
      5543      5541      5544      5546      5543      5541      5544      5547
      5544      5547      5550      5551      5544      5547      5550      5552
      5544      5547      5550      5553      5545      5544      5547      5548
      5545      5544      5547      5549      5545      5544      5547      5550
      5546      5544      5547      5548      5546      5544      5547      5549
      5546      5544      5547      5550      5547      5550      5553      5554
      5547      5550      5553      5555      5547      5550      5553      5556
      5548      5547      5550      5551      5548      5547      5550      5552
      5548      5547      5550      5553      5549      5547      5550      5551
      5549      5547      5550      5552      5549      5547      5550      5553
      5550      5553      5556      5557      5550      5553      5556      5558
      5550      5553      5556      5559      5551      5550      5553      5554
      5551      5550      5553      5555      5551      5550      5553      5556
      5552      5550      5553      5554      5552      5550      5553      5555
      5552      5550      5553      5556      5553      5556      5559      5560
      5553      5556      5559      5561      5553      5556      5559      5562
      5554      5553      5556      5557      5554      5553      5556      5558
      5554      5553      5556      5559      5555      5553      5556      5557
      5555      5553      5556      5558      5555      5553      5556      5559
      5557      5556      5559      5560      5557      5556      5559      5561
      5557      5556      5559      5562      5558      5556      5559      5560
      5558      5556      5559      5561      5558      5556      5559      5562
      5563      5564      5579      5580      5563      5564      5579      5581
      5563      5564      5579      5585      5564      5563      5567      5568
      5564      5563      5567      5569      5564      5563      5567      5570
      5564      5563      5571      5572      5564      5563      5571      5573
      5564      5563      5571      5574      5564      5563      5575      5576
      5564      5563      5575      5577      5564      5563      5575      5578
      5564      5579      5585      5582      5565      5564      5563      5567
      5565      5564      5563      5571      5565      5564      5563      5575
      5565      5564      5579      5580      5565      5564      5579      5581
      5565      5564      5579      5585      5566      5564      5563      5567
      5566      5564      5563      5571      5566      5564      5563      5575
      5566      5564      5579      5580      5566      5564      5579      5581
      5566      5564      5579      5585      5567      5563      5564      5579
      5567      5563      5571      5572      5567      5563      5571      5573
      5567      5563      5571      5574      5567      5563      5575      5576
      5567      5563      5575      5577      5567      5563      5575      5578
      5568      5567      5563      5571      5568      5567      5563      5575
      5569      5567      5563      5571      5569      5567      5563      5575
      5570      5567      5563      5571      5570      5567      5563      5575
      5571      5563      5564      5579      5571      5563      5575      5576
      5571      5563      5575      5577      5571      5563      5575      5578
      5572      5571      5563      5575      5573      5571      5563      5575
      5574      5571      5563      5575      5575      5563      5564      5579
      5579      5585      5582      5583      5579      5585      5582      5584
      5579      5585      5582      5586      5580      5579      5585      5582
      5581      5579      5585      5582      5582      5586      5587      5588
      5582      5586      5587      5589      5582      5586      5587      5590
      5583      5582      5586      5587      5584      5582      5586      5587
      5585      5582      5586      5587      5586      5587      5590      5591
      5586      5587      5590      5592      5586      5587      5590      5598
      5587      5590      5592      5593      5587      5590      5598      5599
      5587      5590      5598      5600      5587      5590      5598      5601
      5588      5587      5590      5591      5588      5587      5590      5592
      5588      5587      5590      5598      5589      5587      5590      5591
      5589      5587      5590      5592      5589      5587      5590      5598
      5590      5592      5593      5594      5590      5592      5593      5595
      5590      5598      5601      5602      5591      5590      5592      5593
      5591      5590      5598      5599      5591      5590      5598      5600
      5591      5590      5598      5601      5592      5590      5598      5599
      5592      5590      5598      5600      5592      5590      5598      5601
      5592      5593      5595      5596      5592      5593      5595      5597
      5592      5593      5595      5607      5593      5592      5590      5598
      5593      5595      5607      5608      5593      5595      5607      5609
      5593      5595      5607      5610      5594      5593      5595      5596
      5594      5593      5595      5597      5594      5593      5595      5607
      5595      5607      5610      5611      5595      5607      5610      5612
      5595      5607      5610      5613      5596      5595      5607      5608
      5596      5595      5607      5609      5596      5595      5607      5610
      5597      5595      5607      5608      5597      5595      5607      5609
      5597      5595      5607      5610      5598      5601      5602      5603
      5598      5601      5602      5604      5599      5598      5601      5602
      5600      5598      5601      5602      5601      5602      5604      5605
      5601      5602      5604      5606      5601      5602      5604      5654
      5602      5604      5654      5655      5602      5604      5654      5656
      5602      5604      5654      5657      5603      5602      5604      5605
      5603      5602      5604      5606      5603      5602      5604      5654
      5604      5654      5657      5658      5604      5654      5657      5659
      5604      5654      5657      5660      5605      5604      5654      5655
      5605      5604      5654      5656      5605      5604      5654      5657
      5606      5604      5654      5655      5606      5604      5654      5656
      5606      5604      5654      5657      5607      5610      5613      5614
      5607      5610      5613      5615      5607      5610      5613      5616
      5608      5607      5610      5611      5608      5607      5610      5612
      5608      5607      5610      5613      5609      5607      5610      5611
      5609      5607      5610      5612      5609      5607      5610      5613
      5610      5613      5616      5617      5610      5613      5616      5618
      5610      5613      5616      5619      5611      5610      5613      5614
      5611      5610      5613      5615      5611      5610      5613      5616
      5612      5610      5613      5614      5612      5610      5613      5615
      5612      5610      5613      5616      5613      5616      5619      5620
      5613      5616      5619      5621      5613      5616      5619      5622
      5614      5613      5616      5617      5614      5613      5616      5618
      5614      5613      5616      5619      5615      5613      5616      5617
      5615      5613      5616      5618      5615      5613      5616      5619
      5616      5619      5622      5623      5616      5619      5622      5624
      5616      5619      5622      5625      5617      5616      5619      5620
      5617      5616      5619      5621      5617      5616      5619      5622
      5618      5616      5619      5620      5618      5616      5619      5621
      5618      5616      5619      5622      5619      5622      5625      5626
      5619      5622      5625      5627      5620      5619      5622      5623
      5620      5619      5622      5624      5620      5619      5622      5625
      5621      5619      5622      5623      5621      5619      5622      5624
      5621      5619      5622      5625      5622      5625      5627      5628
      5622      5625      5627      5629      5623      5622      5625      5626
      5623      5622      5625      5627      5624      5622      5625      5626
      5624      5622      5625      5627      5625      5627      5629      5630
      5625      5627      5629      5631      5625      5627      5629      5632
      5626      5625      5627      5628      5626      5625      5627      5629
      5627      5629      5632      5633      5627      5629      5632      5634
      5627      5629      5632      5635      5628      5627      5629      5630
      5628      5627      5629      5631      5628      5627      5629      5632
      5629      5632      5635      5636      5629      5632      5635      5637
      5629      5632      5635      5638      5630      5629      5632      5633
      5630      5629      5632      5634      5630      5629      5632      5635
      5631      5629      5632      5633      5631      5629      5632      5634
      5631      5629      5632      5635      5632      5635      5638      5639
      5632      5635      5638      5640      5632      5635      5638      5641
      5633      5632      5635      5636      5633      5632      5635      5637
      5633      5632      5635      5638      5634      5632      5635      5636
      5634      5632      5635      5637      5634      5632      5635      5638
      5635      5638      5641      5642      5635      5638      5641      5643
      5635      5638      5641      5644      5636      5635      5638      5639
      5636      5635      5638      5640      5636      5635      5638      5641
      5637      5635      5638      5639      5637      5635      5638      5640
      5637      5635      5638      5641      5638      5641      5644      5645
      5638      5641      5644      5646      5638      5641      5644      5647
      5639      5638      5641      5642      5639      5638      5641      5643
      5639      5638      5641      5644      5640      5638      5641      5642
      5640      5638      5641      5643      5640      5638      5641      5644
      5641      5644      5647      5648      5641      5644      5647      5649
      5641      5644      5647      5650      5642      5641      5644      5645
      5642      5641      5644      5646      5642      5641      5644      5647
      5643      5641      5644      5645      5643      5641      5644      5646
      5643      5641      5644      5647      5644      5647      5650      5651
      5644      5647      5650      5652      5644      5647      5650      5653
      5645      5644      5647      5648      5645      5644      5647      5649
      5645      5644      5647      5650      5646      5644      5647      5648
      5646      5644      5647      5649      5646      5644      5647      5650
      5648      5647      5650      5651      5648      5647      5650      5652
      5648      5647      5650      5653      5649      5647      5650      5651
      5649      5647      5650      5652      5649      5647      5650      5653
      5654      5657      5660      5661      5654      5657      5660      5662
      5654      5657      5660      5663      5655      5654      5657      5658
      5655      5654      5657      5659      5655      5654      5657      5660
      5656      5654      5657      5658      5656      5654      5657      5659
      5656      5654      5657      5660      5657      5660      5663      5664
      5657      5660      5663      5665      5657      5660      5663      5666
      5658      5657      5660      5661      5658      5657      5660      5662
      5658      5657      5660      5663      5659      5657      5660      5661
      5659      5657      5660      5662      5659      5657      5660      5663
      5660      5663      5666      5667      5660      5663      5666      5668
      5660      5663      5666      5669      5661      5660      5663      5664
      5661      5660      5663      5665      5661      5660      5663      5666
      5662      5660      5663      5664      5662      5660      5663      5665
      5662      5660      5663      5666      5663      5666      5669      5670
      5663      5666      5669      5671      5663      5666      5669      5672
      5664      5663      5666      5667      5664      5663      5666      5668
      5664      5663      5666      5669      5665      5663      5666      5667
      5665      5663      5666      5668      5665      5663      5666      5669
      5666      5669      5672      5673      5666      5669      5672      5674
      5666      5669      5672      5675      5667      5666      5669      5670
      5667      5666      5669      5671      5667      5666      5669      5672
      5668      5666      5669      5670      5668      5666      5669      5671
      5668      5666      5669      5672      5669      5672      5675      5676
      5669      5672      5675      5677      5669      5672      5675      5678
      5670      5669      5672      5673      5670      5669      5672      5674
      5670      5669      5672      5675      5671      5669      5672      5673
      5671      5669      5672      5674      5671      5669      5672      5675
      5672      5675      5678      5679      5672      5675      5678      5680
      5672      5675      5678      5681      5673      5672      5675      5676
      5673      5672      5675      5677      5673      5672      5675      5678
      5674      5672      5675      5676      5674      5672      5675      5677
      5674      5672      5675      5678      5675      5678      5681      5682
      5675      5678      5681      5683      5675      5678      5681      5684
      5676      5675      5678      5679      5676      5675      5678      5680
      5676      5675      5678      5681      5677      5675      5678      5679
      5677      5675      5678      5680      5677      5675      5678      5681
      5678      5681      5684      5685      5678      5681      5684      5686
      5678      5681      5684      5687      5679      5678      5681      5682
      5679      5678      5681      5683      5679      5678      5681      5684
      5680      5678      5681      5682      5680      5678      5681      5683
      5680      5678      5681      5684      5681      5684      5687      5688
      5681      5684      5687      5689      5681      5684      5687      5690
      5682      5681      5684      5685      5682      5681      5684      5686
      5682      5681      5684      5687      5683      5681      5684      5685
      5683      5681      5684      5686      5683      5681      5684      5687
      5684      5687      5690      5691      5684      5687      5690      5692
      5684      5687      5690      5693      5685      5684      5687      5688
      5685      5684      5687      5689      5685      5684      5687      5690
      5686      5684      5687      5688      5686      5684      5687      5689
      5686      5684      5687      5690      5687      5690      5693      5694
      5687      5690      5693      5695      5687      5690      5693      5696
      5688      5687      5690      5691      5688      5687      5690      5692
      5688      5687      5690      5693      5689      5687      5690      5691
      5689      5687      5690      5692      5689      5687      5690      5693
      5691      5690      5693      5694      5691      5690      5693      5695
      5691      5690      5693      5696      5692      5690      5693      5694
      5692      5690      5693      5695      5692      5690      5693      5696
      5697      5698      5713      5714      5697      5698      5713      5715
      5697      5698      5713      5719      5698      5697      5701      5702
      5698      5697      5701      5703      5698      5697      5701      5704
      5698      5697      5705      5706      5698      5697      5705      5707
      5698      5697      5705      5708      5698      5697      5709      5710
      5698      5697      5709      5711      5698      5697      5709      5712
      5698      5713      5719      5716      5699      5698      5697      5701
      5699      5698      5697      5705      5699      5698      5697      5709
      5699      5698      5713      5714      5699      5698      5713      5715
      5699      5698      5713      5719      5700      5698      5697      5701
      5700      5698      5697      5705      5700      5698      5697      5709
      5700      5698      5713      5714      5700      5698      5713      5715
      5700      5698      5713      5719      5701      5697      5698      5713
      5701      5697      5705      5706      5701      5697      5705      5707
      5701      5697      5705      5708      5701      5697      5709      5710
      5701      5697      5709      5711      5701      5697      5709      5712
      5702      5701      5697      5705      5702      5701      5697      5709
      5703      5701      5697      5705      5703      5701      5697      5709
      5704      5701      5697      5705      5704      5701      5697      5709
      5705      5697      5698      5713      5705      5697      5709      5710
      5705      5697      5709      5711      5705      5697      5709      5712
      5706      5705      5697      5709      5707      5705      5697      5709
      5708      5705      5697      5709      5709      5697      5698      5713
      5713      5719      5716      5717      5713      5719      5716      5718
      5713      5719      5716      5720      5714      5713      5719      5716
      5715      5713      5719      5716      5716      5720      5721      5722
      5716      5720      5721      5723      5716      5720      5721      5724
      5717      5716      5720      5721      5718      5716      5720      5721
      5719      5716      5720      5721      5720      5721      5724      5725
      5720      5721      5724      5726      5720      5721      5724      5732
      5721      5724      5726      5727      5721      5724      5732      5733
      5721      5724      5732      5734      5721      5724      5732      5735
      5722      5721      5724      5725      5722      5721      5724      5726
      5722      5721      5724      5732      5723      5721      5724      5725
      5723      5721      5724      5726      5723      5721      5724      5732
      5724      5726      5727      5728      5724      5726      5727      5729
      5724      5732      5735      5736      5725      5724      5726      5727
      5725      5724      5732      5733      5725      5724      5732      5734
      5725      5724      5732      5735      5726      5724      5732      5733
      5726      5724      5732      5734      5726      5724      5732      5735
      5726      5727      5729      5730      5726      5727      5729      5731
      5726      5727      5729      5741      5727      5726      5724      5732
      5727      5729      5741      5742      5727      5729      5741      5743
      5727      5729      5741      5744      5728      5727      5729      5730
      5728      5727      5729      5731      5728      5727      5729      5741
      5729      5741      5744      5745      5729      5741      5744      5746
      5729      5741      5744      5747      5730      5729      5741      5742
      5730      5729      5741      5743      5730      5729      5741      5744
      5731      5729      5741      5742      5731      5729      5741      5743
      5731      5729      5741      5744      5732      5735      5736      5737
      5732      5735      5736      5738      5733      5732      5735      5736
      5734      5732      5735      5736      5735      5736      5738      5739
      5735      5736      5738      5740      5735      5736      5738      5788
      5736      5738      5788      5789      5736      5738      5788      5790
      5736      5738      5788      5791      5737      5736      5738      5739
      5737      5736      5738      5740      5737      5736      5738      5788
      5738      5788      5791      5792      5738      5788      5791      5793
      5738      5788      5791      5794      5739      5738      5788      5789
      5739      5738      5788      5790      5739      5738      5788      5791
      5740      5738      5788      5789      5740      5738      5788      5790
      5740      5738      5788      5791      5741      5744      5747      5748
      5741      5744      5747      5749      5741      5744      5747      5750
      5742      5741      5744      5745      5742      5741      5744      5746
      5742      5741      5744      5747      5743      5741      5744      5745
      5743      5741      5744      5746      5743      5741      5744      5747
      5744      5747      5750      5751      5744      5747      5750      5752
      5744      5747      5750      5753      5745      5744      5747      5748
      5745      5744      5747      5749      5745      5744      5747      5750
      5746      5744      5747      5748      5746      5744      5747      5749
      5746      5744      5747      5750      5747      5750      5753      5754
      5747      5750      5753      5755      5747      5750      5753      5756
      5748      5747      5750      5751      5748      5747      5750      5752
      5748      5747      5750      5753      5749      5747      5750      5751
      5749      5747      5750      5752      5749      5747      5750      5753
      5750      5753      5756      5757      5750      5753      5756      5758
      5750      5753      5756      5759      5751      5750      5753      5754
      5751      5750      5753      5755      5751      5750      5753      5756
      5752      5750      5753      5754      5752      5750      5753      5755
      5752      5750      5753      5756      5753      5756      5759      5760
      5753      5756      5759      5761      5754      5753      5756      5757
      5754      5753      5756      5758      5754      5753      5756      5759
      5755      5753      5756      5757      5755      5753      5756      5758
      5755      5753      5756      5759      5756      5759      5761      5762
      5756      5759      5761      5763      5757      5756      5759      5760
      5757      5756      5759      5761      5758      5756      5759      5760
      5758      5756      5759      5761      5759      5761      5763      5764
      5759      5761      5763      5765      5759      5761      5763      5766
      5760      5759      5761      5762      5760      5759      5761      5763
      5761      5763      5766      5767      5761      5763      5766      5768
      5761      5763      5766      5769      5762      5761      5763      5764
      5762      5761      5763      5765      5762      5761      5763      5766
      5763      5766      5769      5770      5763      5766      5769      5771
      5763      5766      5769      5772      5764      5763      5766      5767
      5764      5763      5766      5768      5764      5763      5766      5769
      5765      5763      5766      5767      5765      5763      5766      5768
      5765      5763      5766      5769      5766      5769      5772      5773
      5766      5769      5772      5774      5766      5769      5772      5775
      5767      5766      5769      5770      5767      5766      5769      5771
      5767      5766      5769      5772      5768      5766      5769      5770
      5768      5766      5769      5771      5768      5766      5769      5772
      5769      5772      5775      5776      5769      5772      5775      5777
      5769      5772      5775      5778      5770      5769      5772      5773
      5770      5769      5772      5774      5770      5769      5772      5775
      5771      5769      5772      5773      5771      5769      5772      5774
      5771      5769      5772      5775      5772      5775      5778      5779
      5772      5775      5778      5780      5772      5775      5778      5781
      5773      5772      5775      5776      5773      5772      5775      5777
      5773      5772      5775      5778      5774      5772      5775      5776
      5774      5772      5775      5777      5774      5772      5775      5778
      5775      5778      5781      5782      5775      5778      5781      5783
      5775      5778      5781      5784      5776      5775      5778      5779
      5776      5775      5778      5780      5776      5775      5778      5781
      5777      5775      5778      5779      5777      5775      5778      5780
      5777      5775      5778      5781      5778      5781      5784      5785
      5778      5781      5784      5786      5778      5781      5784      5787
      5779      5778      5781      5782      5779      5778      5781      5783
      5779      5778      5781      5784      5780      5778      5781      5782
      5780      5778      5781      5783      5780      5778      5781      5784
      5782      5781      5784      5785      5782      5781      5784      5786
      5782      5781      5784      5787      5783      5781      5784      5785
      5783      5781      5784      5786      5783      5781      5784      5787
      5788      5791      5794      5795      5788      5791      5794      5796
      5788      5791      5794      5797      5789      5788      5791      5792
      5789      5788      5791      5793      5789      5788      5791      5794
      5790      5788      5791      5792      5790      5788      5791      5793
      5790      5788      5791      5794      5791      5794      5797      5798
      5791      5794      5797      5799      5791      5794      5797      5800
      5792      5791      5794      5795      5792      5791      5794      5796
      5792      5791      5794      5797      5793      5791      5794      5795
      5793      5791      5794      5796      5793      5791      5794      5797
      5794      5797      5800      5801      5794      5797      5800      5802
      5794      5797      5800      5803      5795      5794      5797      5798
      5795      5794      5797      5799      5795      5794      5797      5800
      5796      5794      5797      5798      5796      5794      5797      5799
      5796      5794      5797      5800      5797      5800      5803      5804
      5797      5800      5803      5805      5797      5800      5803      5806
      5798      5797      5800      5801      5798      5797      5800      5802
      5798      5797      5800      5803      5799      5797      5800      5801
      5799      5797      5800      5802      5799      5797      5800      5803
      5800      5803      5806      5807      5800      5803      5806      5808
      5800      5803      5806      5809      5801      5800      5803      5804
      5801      5800      5803      5805      5801      5800      5803      5806
      5802      5800      5803      5804      5802      5800      5803      5805
      5802      5800      5803      5806      5803      5806      5809      5810
      5803      5806      5809      5811      5803      5806      5809      5812
      5804      5803      5806      5807      5804      5803      5806      5808
      5804      5803      5806      5809      5805      5803      5806      5807
      5805      5803      5806      5808      5805      5803      5806      5809
      5806      5809      5812      5813      5806      5809      5812      5814
      5806      5809      5812      5815      5807      5806      5809      5810
      5807      5806      5809      5811      5807      5806      5809      5812
      5808      5806      5809      5810      5808      5806      5809      5811
      5808      5806      5809      5812      5809      5812      5815      5816
      5809      5812      5815      5817      5809      5812      5815      5818
      5810      5809      5812      5813      5810      5809      5812      5814
      5810      5809      5812      5815      5811      5809      5812      5813
      5811      5809      5812      5814      5811      5809      5812      5815
      5812      5815      5818      5819      5812      5815      5818      5820
      5812      5815      5818      5821      5813      5812      5815      5816
      5813      5812      5815      5817      5813      5812      5815      5818
      5814      5812      5815      5816      5814      5812      5815      5817
      5814      5812      5815      5818      5815      5818      5821      5822
      5815      5818      5821      5823      5815      5818      5821      5824
      5816      5815      5818      5819      5816      5815      5818      5820
      5816      5815      5818      5821      5817      5815      5818      5819
      5817      5815      5818      5820      5817      5815      5818      5821
      5818      5821      5824      5825      5818      5821      5824      5826
      5818      5821      5824      5827      5819      5818      5821      5822
      5819      5818      5821      5823      5819      5818      5821      5824
      5820      5818      5821      5822      5820      5818      5821      5823
      5820      5818      5821      5824      5821      5824      5827      5828
      5821      5824      5827      5829      5821      5824      5827      5830
      5822      5821      5824      5825      5822      5821      5824      5826
      5822      5821      5824      5827      5823      5821      5824      5825
      5823      5821      5824      5826      5823      5821      5824      5827
      5825      5824      5827      5828      5825      5824      5827      5829
      5825      5824      5827      5830      5826      5824      5827      5828
      5826      5824      5827      5829      5826      5824      5827      5830
      5831      5832      5847      5848      5831      5832      5847      5849
      5831      5832      5847      5853      5832      5831      5835      5836
      5832      5831      5835      5837      5832      5831      5835      5838
      5832      5831      5839      5840      5832      5831      5839      5841
      5832      5831      5839      5842      5832      5831      5843      5844
      5832      5831      5843      5845      5832      5831      5843      5846
      5832      5847      5853      5850      5833      5832      5831      5835
      5833      5832      5831      5839      5833      5832      5831      5843
      5833      5832      5847      5848      5833      5832      5847      5849
      5833      5832      5847      5853      5834      5832      5831      5835
      5834      5832      5831      5839      5834      5832      5831      5843
      5834      5832      5847      5848      5834      5832      5847      5849
      5834      5832      5847      5853      5835      5831      5832      5847
      5835      5831      5839      5840      5835      5831      5839      5841
      5835      5831      5839      5842      5835      5831      5843      5844
      5835      5831      5843      5845      5835      5831      5843      5846
      5836      5835      5831      5839      5836      5835      5831      5843
      5837      5835      5831      5839      5837      5835      5831      5843
      5838      5835      5831      5839      5838      5835      5831      5843
      5839      5831      5832      5847      5839      5831      5843      5844
      5839      5831      5843      5845      5839      5831      5843      5846
      5840      5839      5831      5843      5841      5839      5831      5843
      5842      5839      5831      5843      5843      5831      5832      5847
      5847      5853      5850      5851      5847      5853      5850      5852
      5847      5853      5850      5854      5848      5847      5853      5850
      5849      5847      5853      5850      5850      5854      5855      5856
      5850      5854      5855      5857      5850      5854      5855      5858
      5851      5850      5854      5855      5852      5850      5854      5855
      5853      5850      5854      5855      5854      5855      5858      5859
      5854      5855      5858      5860      5854      5855      5858      5866
      5855      5858      5860      5861      5855      5858      5866      5867
      5855      5858      5866      5868      5855      5858      5866      5869
      5856      5855      5858      5859      5856      5855      5858      5860
      5856      5855      5858      5866      5857      5855      5858      5859
      5857      5855      5858      5860      5857      5855      5858      5866
      5858      5860      5861      5862      5858      5860      5861      5863
      5858      5866      5869      5870      5859      5858      5860      5861
      5859      5858      5866      5867      5859      5858      5866      5868
      5859      5858      5866      5869      5860      5858      5866      5867
      5860      5858      5866      5868      5860      5858      5866      5869
      5860      5861      5863      5864      5860      5861      5863      5865
      5860      5861      5863      5875      5861      5860      5858      5866
      5861      5863      5875      5876      5861      5863      5875      5877
      5861      5863      5875      5878      5862      5861      5863      5864
      5862      5861      5863      5865      5862      5861      5863      5875
      5863      5875      5878      5879      5863      5875      5878      5880
      5863      5875      5878      5881      5864      5863      5875      5876
      5864      5863      5875      5877      5864      5863      5875      5878
      5865      5863      5875      5876      5865      5863      5875      5877
      5865      5863      5875      5878      5866      5869      5870      5871
      5866      5869      5870      5872      5867      5866      5869      5870
      5868      5866      5869      5870      5869      5870      5872      5873
      5869      5870      5872      5874      5869      5870      5872      5922
      5870      5872      5922      5923      5870      5872      5922      5924
      5870      5872      5922      5925      5871      5870      5872      5873
      5871      5870      5872      5874      5871      5870      5872      5922
      5872      5922      5925      5926      5872      5922      5925      5927
      5872      5922      5925      5928      5873      5872      5922      5923
      5873      5872      5922      5924      5873      5872      5922      5925
      5874      5872      5922      5923      5874      5872      5922      5924
      5874      5872      5922      5925      5875      5878      5881      5882
      5875      5878      5881      5883      5875      5878      5881      5884
      5876      5875      5878      5879      5876      5875      5878      5880
      5876      5875      5878      5881      5877      5875      5878      5879
      5877      5875      5878      5880      5877      5875      5878      5881
      5878      5881      5884      5885      5878      5881      5884      5886
      5878      5881      5884      5887      5879      5878      5881      5882
      5879      5878      5881      5883      5879      5878      5881      5884
      5880      5878      5881      5882      5880      5878      5881      5883
      5880      5878      5881      5884      5881      5884      5887      5888
      5881      5884      5887      5889      5881      5884      5887      5890
      5882      5881      5884      5885      5882      5881      5884      5886
      5882      5881      5884      5887      5883      5881      5884      5885
      5883      5881      5884      5886      5883      5881      5884      5887
      5884      5887      5890      5891      5884      5887      5890      5892
      5884      5887      5890      5893      5885      5884      5887      5888
      5885      5884      5887      5889      5885      5884      5887      5890
      5886      5884      5887      5888      5886      5884      5887      5889
      5886      5884      5887      5890      5887      5890      5893      5894
      5887      5890      5893      5895      5888      5887      5890      5891
      5888      5887      5890      5892      5888      5887      5890      5893
      5889      5887      5890      5891      5889      5887      5890      5892
      5889      5887      5890      5893      5890      5893      5895      5896
      5890      5893      5895      5897      5891      5890      5893      5894
      5891      5890      5893      5895      5892      5890      5893      5894
      5892      5890      5893      5895      5893      5895      5897      5898
      5893      5895      5897      5899      5893      5895      5897      5900
      5894      5893      5895      5896      5894      5893      5895      5897
      5895      5897      5900      5901      5895      5897      5900      5902
      5895      5897      5900      5903      5896      5895      5897      5898
      5896      5895      5897      5899      5896      5895      5897      5900
      5897      5900      5903      5904      5897      5900      5903      5905
      5897      5900      5903      5906      5898      5897      5900      5901
      5898      5897      5900      5902      5898      5897      5900      5903
      5899      5897      5900      5901      5899      5897      5900      5902
      5899      5897      5900      5903      5900      5903      5906      5907
      5900      5903      5906      5908      5900      5903      5906      5909
      5901      5900      5903      5904      5901      5900      5903      5905
      5901      5900      5903      5906      5902      5900      5903      5904
      5902      5900      5903      5905      5902      5900      5903      5906
      5903      5906      5909      5910      5903      5906      5909      5911
      5903      5906      5909      5912      5904      5903      5906      5907
      5904      5903      5906      5908      5904      5903      5906      5909
      5905      5903      5906      5907      5905      5903      5906      5908
      5905      5903      5906      5909      5906      5909      5912      5913
      5906      5909      5912      5914      5906      5909      5912      5915
      5907      5906      5909      5910      5907      5906      5909      5911
      5907      5906      5909      5912      5908      5906      5909      5910
      5908      5906      5909      5911      5908      5906      5909      5912
      5909      5912      5915      5916      5909      5912      5915      5917
      5909      5912      5915      5918      5910      5909      5912      5913
      5910      5909      5912      5914      5910      5909      5912      5915
      5911      5909      5912      5913      5911      5909      5912      5914
      5911      5909      5912      5915      5912      5915      5918      5919
      5912      5915      5918      5920      5912      5915      5918      5921
      5913      5912      5915      5916      5913      5912      5915      5917
      5913      5912      5915      5918      5914      5912      5915      5916
      5914      5912      5915      5917      5914      5912      5915      5918
      5916      5915      5918      5919      5916      5915      5918      5920
      5916      5915      5918      5921      5917      5915      5918      5919
      5917      5915      5918      5920      5917      5915      5918      5921
      5922      5925      5928      5929      5922      5925      5928      5930
      5922      5925      5928      5931      5923      5922      5925      5926
      5923      5922      5925      5927      5923      5922      5925      5928
      5924      5922      5925      5926      5924      5922      5925      5927
      5924      5922      5925      5928      5925      5928      5931      5932
      5925      5928      5931      5933      5925      5928      5931      5934
      5926      5925      5928      5929      5926      5925      5928      5930
      5926      5925      5928      5931      5927      5925      5928      5929
      5927      5925      5928      5930      5927      5925      5928      5931
      5928      5931      5934      5935      5928      5931      5934      5936
      5928      5931      5934      5937      5929      5928      5931      5932
      5929      5928      5931      5933      5929      5928      5931      5934
      5930      5928      5931      5932      5930      5928      5931      5933
      5930      5928      5931      5934      5931      5934      5937      5938
      5931      5934      5937      5939      5931      5934      5937      5940
      5932      5931      5934      5935      5932      5931      5934      5936
      5932      5931      5934      5937      5933      5931      5934      5935
      5933      5931      5934      5936      5933      5931      5934      5937
      5934      5937      5940      5941      5934      5937      5940      5942
      5934      5937      5940      5943      5935      5934      5937      5938
      5935      5934      5937      5939      5935      5934      5937      5940
      5936      5934      5937      5938      5936      5934      5937      5939
      5936      5934      5937      5940      5937      5940      5943      5944
      5937      5940      5943      5945      5937      5940      5943      5946
      5938      5937      5940      5941      5938      5937      5940      5942
      5938      5937      5940      5943      5939      5937      5940      5941
      5939      5937      5940      5942      5939      5937      5940      5943
      5940      5943      5946      5947      5940      5943      5946      5948
      5940      5943      5946      5949      5941      5940      5943      5944
      5941      5940      5943      5945      5941      5940      5943      5946
      5942      5940      5943      5944      5942      5940      5943      5945
      5942      5940      5943      5946      5943      5946      5949      5950
      5943      5946      5949      5951      5943      5946      5949      5952
      5944      5943      5946      5947      5944      5943      5946      5948
      5944      5943      5946      5949      5945      5943      5946      5947
      5945      5943      5946      5948      5945      5943      5946      5949
      5946      5949      5952      5953      5946      5949      5952      5954
      5946      5949      5952      5955      5947      5946      5949      5950
      5947      5946      5949      5951      5947      5946      5949      5952
      5948      5946      5949      5950      5948      5946      5949      5951
      5948      5946      5949      5952      5949      5952      5955      5956
      5949      5952      5955      5957      5949      5952      5955      5958
      5950      5949      5952      5953      5950      5949      5952      5954
      5950      5949      5952      5955      5951      5949      5952      5953
      5951      5949      5952      5954      5951      5949      5952      5955
      5952      5955      5958      5959      5952      5955      5958      5960
      5952      5955      5958      5961      5953      5952      5955      5956
      5953      5952      5955      5957      5953      5952      5955      5958
      5954      5952      5955      5956      5954      5952      5955      5957
      5954      5952      5955      5958      5955      5958      5961      5962
      5955      5958      5961      5963      5955      5958      5961      5964
      5956      5955      5958      5959      5956      5955      5958      5960
      5956      5955      5958      5961      5957      5955      5958      5959
      5957      5955      5958      5960      5957      5955      5958      5961
      5959      5958      5961      5962      5959      5958      5961      5963
      5959      5958      5961      5964      5960      5958      5961      5962
      5960      5958      5961      5963      5960      5958      5961      5964
      5965      5966      5981      5982      5965      5966      5981      5983
      5965      5966      5981      5987      5966      5965      5969      5970
      5966      5965      5969      5971      5966      5965      5969      5972
      5966      5965      5973      5974      5966      5965      5973      5975
      5966      5965      5973      5976      5966      5965      5977      5978
      5966      5965      5977      5979      5966      5965      5977      5980
      5966      5981      5987      5984      5967      5966      5965      5969
      5967      5966      5965      5973      5967      5966      5965      5977
      5967      5966      5981      5982      5967      5966      5981      5983
      5967      5966      5981      5987      5968      5966      5965      5969
      5968      5966      5965      5973      5968      5966      5965      5977
      5968      5966      5981      5982      5968      5966      5981      5983
      5968      5966      5981      5987      5969      5965      5966      5981
      5969      5965      5973      5974      5969      5965      5973      5975
      5969      5965      5973      5976      5969      5965      5977      5978
      5969      5965      5977      5979      5969      5965      5977      5980
      5970      5969      5965      5973      5970      5969      5965      5977
      5971      5969      5965      5973      5971      5969      5965      5977
      5972      5969      5965      5973      5972      5969      5965      5977
      5973      5965      5966      5981      5973      5965      5977      5978
      5973      5965      5977      5979      5973      5965      5977      5980
      5974      5973      5965      5977      5975      5973      5965      5977
      5976      5973      5965      5977      5977      5965      5966      5981
      5981      5987      5984      5985      5981      5987      5984      5986
      5981      5987      5984      5988      5982      5981      5987      5984
      5983      5981      5987      5984      5984      5988      5989      5990
      5984      5988      5989      5991      5984      5988      5989      5992
      5985      5984      5988      5989      5986      5984      5988      5989
      5987      5984      5988      5989      5988      5989      5992      5993
      5988      5989      5992      5994      5988      5989      5992      6000
      5989      5992      5994      5995      5989      5992      6000      6001
      5989      5992      6000      6002      5989      5992      6000      6003
      5990      5989      5992      5993      5990      5989      5992      5994
      5990      5989      5992      6000      5991      5989      5992      5993
      5991      5989      5992      5994      5991      5989      5992      6000
      5992      5994      5995      5996      5992      5994      5995      5997
      5992      6000      6003      6004      5993      5992      5994      5995
      5993      5992      6000      6001      5993      5992      6000      6002
      5993      5992      6000      6003      5994      5992      6000      6001
      5994      5992      6000      6002      5994      5992      6000      6003
      5994      5995      5997      5998      5994      5995      5997      5999
      5994      5995      5997      6009      5995      5994      5992      6000
      5995      5997      6009      6010      5995      5997      6009      6011
      5995      5997      6009      6012      5996      5995      5997      5998
      5996      5995      5997      5999      5996      5995      5997      6009
      5997      6009      6012      6013      5997      6009      6012      6014
      5997      6009      6012      6015      5998      5997      6009      6010
      5998      5997      6009      6011      5998      5997      6009      6012
      5999      5997      6009      6010      5999      5997      6009      6011
      5999      5997      6009      6012      6000      6003      6004      6005
      6000      6003      6004      6006      6001      6000      6003      6004
      6002      6000      6003      6004      6003      6004      6006      6007
      6003      6004      6006      6008      6003      6004      6006      6056
      6004      6006      6056      6057      6004      6006      6056      6058
      6004      6006      6056      6059      6005      6004      6006      6007
      6005      6004      6006      6008      6005      6004      6006      6056
      6006      6056      6059      6060      6006      6056      6059      6061
      6006      6056      6059      6062      6007      6006      6056      6057
      6007      6006      6056      6058      6007      6006      6056      6059
      6008      6006      6056      6057      6008      6006      6056      6058
      6008      6006      6056      6059      6009      6012      6015      6016
      6009      6012      6015      6017      6009      6012      6015      6018
      6010      6009      6012      6013      6010      6009      6012      6014
      6010      6009      6012      6015      6011      6009      6012      6013
      6011      6009      6012      6014      6011      6009      6012      6015
      6012      6015      6018      6019      6012      6015      6018      6020
      6012      6015      6018      6021      6013      6012      6015      6016
      6013      6012      6015      6017      6013      6012      6015      6018
      6014      6012      6015      6016      6014      6012      6015      6017
      6014      6012      6015      6018      6015      6018      6021      6022
      6015      6018      6021      6023      6015      6018      6021      6024
      6016      6015      6018      6019      6016      6015      6018      6020
      6016      6015      6018      6021      6017      6015      6018      6019
      6017      6015      6018      6020      6017      6015      6018      6021
      6018      6021      6024      6025      6018      6021      6024      6026
      6018      6021      6024      6027      6019      6018      6021      6022
      6019      6018      6021      6023      6019      6018      6021      6024
      6020      6018      6021      6022      6020      6018      6021      6023
      6020      6018      6021      6024      6021      6024      6027      6028
      6021      6024      6027      6029      6022      6021      6024      6025
      6022      6021      6024      6026      6022      6021      6024      6027
      6023      6021      6024      6025      6023      6021      6024      6026
      6023      6021      6024      6027      6024      6027      6029      6030
      6024      6027      6029      6031      6025      6024      6027      6028
      6025      6024      6027      6029      6026      6024      6027      6028
      6026      6024      6027      6029      6027      6029      6031      6032
      6027      6029      6031      6033      6027      6029      6031      6034
      6028      6027      6029      6030      6028      6027      6029      6031
      6029      6031      6034      6035      6029      6031      6034      6036
      6029      6031      6034      6037      6030      6029      6031      6032
      6030      6029      6031      6033      6030      6029      6031      6034
      6031      6034      6037      6038      6031      6034      6037      6039
      6031      6034      6037      6040      6032      6031      6034      6035
      6032      6031      6034      6036      6032      6031      6034      6037
      6033      6031      6034      6035      6033      6031      6034      6036
      6033      6031      6034      6037      6034      6037      6040      6041
      6034      6037      6040      6042      6034      6037      6040      6043
      6035      6034      6037      6038      6035      6034      6037      6039
      6035      6034      6037      6040      6036      6034      6037      6038
      6036      6034      6037      6039      6036      6034      6037      6040
      6037      6040      6043      6044      6037      6040      6043      6045
      6037      6040      6043      6046      6038      6037      6040      6041
      6038      6037      6040      6042      6038      6037      6040      6043
      6039      6037      6040      6041      6039      6037      6040      6042
      6039      6037      6040      6043      6040      6043      6046      6047
      6040      6043      6046      6048      6040      6043      6046      6049
      6041      6040      6043      6044      6041      6040      6043      6045
      6041      6040      6043      6046      6042      6040      6043      6044
      6042      6040      6043      6045      6042      6040      6043      6046
      6043      6046      6049      6050      6043      6046      6049      6051
      6043      6046      6049      6052      6044      6043      6046      6047
      6044      6043      6046      6048      6044      6043      6046      6049
      6045      6043      6046      6047      6045      6043      6046      6048
      6045      6043      6046      6049      6046      6049      6052      6053
      6046      6049      6052      6054      6046      6049      6052      6055
      6047      6046      6049      6050      6047      6046      6049      6051
      6047      6046      6049      6052      6048      6046      6049      6050
      6048      6046      6049      6051      6048      6046      6049      6052
      6050      6049      6052      6053      6050      6049      6052      6054
      6050      6049      6052      6055      6051      6049      6052      6053
      6051      6049      6052      6054      6051      6049      6052      6055
      6056      6059      6062      6063      6056      6059      6062      6064
      6056      6059      6062      6065      6057      6056      6059      6060
      6057      6056      6059      6061      6057      6056      6059      6062
      6058      6056      6059      6060      6058      6056      6059      6061
      6058      6056      6059      6062      6059      6062      6065      6066
      6059      6062      6065      6067      6059      6062      6065      6068
      6060      6059      6062      6063      6060      6059      6062      6064
      6060      6059      6062      6065      6061      6059      6062      6063
      6061      6059      6062      6064      6061      6059      6062      6065
      6062      6065      6068      6069      6062      6065      6068      6070
      6062      6065      6068      6071      6063      6062      6065      6066
      6063      6062      6065      6067      6063      6062      6065      6068
      6064      6062      6065      6066      6064      6062      6065      6067
      6064      6062      6065      6068      6065      6068      6071      6072
      6065      6068      6071      6073      6065      6068      6071      6074
      6066      6065      6068      6069      6066      6065      6068      6070
      6066      6065      6068      6071      6067      6065      6068      6069
      6067      6065      6068      6070      6067      6065      6068      6071
      6068      6071      6074      6075      6068      6071      6074      6076
      6068      6071      6074      6077      6069      6068      6071      6072
      6069      6068      6071      6073      6069      6068      6071      6074
      6070      6068      6071      6072      6070      6068      6071      6073
      6070      6068      6071      6074      6071      6074      6077      6078
      6071      6074      6077      6079      6071      6074      6077      6080
      6072      6071      6074      6075      6072      6071      6074      6076
      6072      6071      6074      6077      6073      6071      6074      6075
      6073      6071      6074      6076      6073      6071      6074      6077
      6074      6077      6080      6081      6074      6077      6080      6082
      6074      6077      6080      6083      6075      6074      6077      6078
      6075      6074      6077      6079      6075      6074      6077      6080
      6076      6074      6077      6078      6076      6074      6077      6079
      6076      6074      6077      6080      6077      6080      6083      6084
      6077      6080      6083      6085      6077      6080      6083      6086
      6078      6077      6080      6081      6078      6077      6080      6082
      6078      6077      6080      6083      6079      6077      6080      6081
      6079      6077      6080      6082      6079      6077      6080      6083
      6080      6083      6086      6087      6080      6083      6086      6088
      6080      6083      6086      6089      6081      6080      6083      6084
      6081      6080      6083      6085      6081      6080      6083      6086
      6082      6080      6083      6084      6082      6080      6083      6085
      6082      6080      6083      6086      6083      6086      6089      6090
      6083      6086      6089      6091      6083      6086      6089      6092
      6084      6083      6086      6087      6084      6083      6086      6088
      6084      6083      6086      6089      6085      6083      6086      6087
      6085      6083      6086      6088      6085      6083      6086      6089
      6086      6089      6092      6093      6086      6089      6092      6094
      6086      6089      6092      6095      6087      6086      6089      6090
      6087      6086      6089      6091      6087      6086      6089      6092
      6088      6086      6089      6090      6088      6086      6089      6091
      6088      6086      6089      6092      6089      6092      6095      6096
      6089      6092      6095      6097      6089      6092      6095      6098
      6090      6089      6092      6093      6090      6089      6092      6094
      6090      6089      6092      6095      6091      6089      6092      6093
      6091      6089      6092      6094      6091      6089      6092      6095
      6093      6092      6095      6096      6093      6092      6095      6097
      6093      6092      6095      6098      6094      6092      6095      6096
      6094      6092      6095      6097      6094      6092      6095      6098
      6099      6100      6115      6116      6099      6100      6115      6117
      6099      6100      6115      6121      6100      6099      6103      6104
      6100      6099      6103      6105      6100      6099      6103      6106
      6100      6099      6107      6108      6100      6099      6107      6109
      6100      6099      6107      6110      6100      6099      6111      6112
      6100      6099      6111      6113      6100      6099      6111      6114
      6100      6115      6121      6118      6101      6100      6099      6103
      6101      6100      6099      6107      6101      6100      6099      6111
      6101      6100      6115      6116      6101      6100      6115      6117
      6101      6100      6115      6121      6102      6100      6099      6103
      6102      6100      6099      6107      6102      6100      6099      6111
      6102      6100      6115      6116      6102      6100      6115      6117
      6102      6100      6115      6121      6103      6099      6100      6115
      6103      6099      6107      6108      6103      6099      6107      6109
      6103      6099      6107      6110      6103      6099      6111      6112
      6103      6099      6111      6113      6103      6099      6111      6114
      6104      6103      6099      6107      6104      6103      6099      6111
      6105      6103      6099      6107      6105      6103      6099      6111
      6106      6103      6099      6107      6106      6103      6099      6111
      6107      6099      6100      6115      6107      6099      6111      6112
      6107      6099      6111      6113      6107      6099      6111      6114
      6108      6107      6099      6111      6109      6107      6099      6111
      6110      6107      6099      6111      6111      6099      6100      6115
      6115      6121      6118      6119      6115      6121      6118      6120
      6115      6121      6118      6122      6116      6115      6121      6118
      6117      6115      6121      6118      6118      6122      6123      6124
      6118      6122      6123      6125      6118      6122      6123      6126
      6119      6118      6122      6123      6120      6118      6122      6123
      6121      6118      6122      6123      6122      6123      6126      6127
      6122      6123      6126      6128      6122      6123      6126      6134
      6123      6126      6128      6129      6123      6126      6134      6135
      6123      6126      6134      6136      6123      6126      6134      6137
      6124      6123      6126      6127      6124      6123      6126      6128
      6124      6123      6126      6134      6125      6123      6126      6127
      6125      6123      6126      6128      6125      6123      6126      6134
      6126      6128      6129      6130      6126      6128      6129      6131
      6126      6134      6137      6138      6127      6126      6128      6129
      6127      6126      6134      6135      6127      6126      6134      6136
      6127      6126      6134      6137      6128      6126      6134      6135
      6128      6126      6134      6136      6128      6126      6134      6137
      6128      6129      6131      6132      6128      6129      6131      6133
      6128      6129      6131      6143      6129      6128      6126      6134
      6129      6131      6143      6144      6129      6131      6143      6145
      6129      6131      6143      6146      6130      6129      6131      6132
      6130      6129      6131      6133      6130      6129      6131      6143
      6131      6143      6146      6147      6131      6143      6146      6148
      6131      6143      6146      6149      6132      6131      6143      6144
      6132      6131      6143      6145      6132      6131      6143      6146
      6133      6131      6143      6144      6133      6131      6143      6145
      6133      6131      6143      6146      6134      6137      6138      6139
      6134      6137      6138      6140      6135      6134      6137      6138
      6136      6134      6137      6138      6137      6138      6140      6141
      6137      6138      6140      6142      6137      6138      6140      6190
      6138      6140      6190      6191      6138      6140      6190      6192
      6138      6140      6190      6193      6139      6138      6140      6141
      6139      6138      6140      6142      6139      6138      6140      6190
      6140      6190      6193      6194      6140      6190      6193      6195
      6140      6190      6193      6196      6141      6140      6190      6191
      6141      6140      6190      6192      6141      6140      6190      6193
      6142      6140      6190      6191      6142      6140      6190      6192
      6142      6140      6190      6193      6143      6146      6149      6150
      6143      6146      6149      6151      6143      6146      6149      6152
      6144      6143      6146      6147      6144      6143      6146      6148
      6144      6143      6146      6149      6145      6143      6146      6147
      6145      6143      6146      6148      6145      6143      6146      6149
      6146      6149      6152      6153      6146      6149      6152      6154
      6146      6149      6152      6155      6147      6146      6149      6150
      6147      6146      6149      6151      6147      6146      6149      6152
      6148      6146      6149      6150      6148      6146      6149      6151
      6148      6146      6149      6152      6149      6152      6155      6156
      6149      6152      6155      6157      6149      6152      6155      6158
      6150      6149      6152      6153      6150      6149      6152      6154
      6150      6149      6152      6155      6151      6149      6152      6153
      6151      6149      6152      6154      6151      6149      6152      6155
      6152      6155      6158      6159      6152      6155      6158      6160
      6152      6155      6158      6161      6153      6152      6155      6156
      6153      6152      6155      6157      6153      6152      6155      6158
      6154      6152      6155      6156      6154      6152      6155      6157
      6154      6152      6155      6158      6155      6158      6161      6162
      6155      6158      6161      6163      6156      6155      6158      6159
      6156      6155      6158      6160      6156      6155      6158      6161
      6157      6155      6158      6159      6157      6155      6158      6160
      6157      6155      6158      6161      6158      6161      6163      6164
      6158      6161      6163      6165      6159      6158      6161      6162
      6159      6158      6161      6163      6160      6158      6161      6162
      6160      6158      6161      6163      6161      6163      6165      6166
      6161      6163      6165      6167      6161      6163      6165      6168
      6162      6161      6163      6164      6162      6161      6163      6165
      6163      6165      6168      6169      6163      6165      6168      6170
      6163      6165      6168      6171      6164      6163      6165      6166
      6164      6163      6165      6167      6164      6163      6165      6168
      6165      6168      6171      6172      6165      6168      6171      6173
      6165      6168      6171      6174      6166      6165      6168      6169
      6166      6165      6168      6170      6166      6165      6168      6171
      6167      6165      6168      6169      6167      6165      6168      6170
      6167      6165      6168      6171      6168      6171      6174      6175
      6168      6171      6174      6176      6168      6171      6174      6177
      6169      6168      6171      6172      6169      6168      6171      6173
      6169      6168      6171      6174      6170      6168      6171      6172
      6170      6168      6171      6173      6170      6168      6171      6174
      6171      6174      6177      6178      6171      6174      6177      6179
      6171      6174      6177      6180      6172      6171      6174      6175
      6172      6171      6174      6176      6172      6171      6174      6177
      6173      6171      6174      6175      6173      6171      6174      6176
      6173      6171      6174      6177      6174      6177      6180      6181
      6174      6177      6180      6182      6174      6177      6180      6183
      6175      6174      6177      6178      6175      6174      6177      6179
      6175      6174      6177      6180      6176      6174      6177      6178
      6176      6174      6177      6179      6176      6174      6177      6180
      6177      6180      6183      6184      6177      6180      6183      6185
      6177      6180      6183      6186      6178      6177      6180      6181
      6178      6177      6180      6182      6178      6177      6180      6183
      6179      6177      6180      6181      6179      6177      6180      6182
      6179      6177      6180      6183      6180      6183      6186      6187
      6180      6183      6186      6188      6180      6183      6186      6189
      6181      6180      6183      6184      6181      6180      6183      6185
      6181      6180      6183      6186      6182      6180      6183      6184
      6182      6180      6183      6185      6182      6180      6183      6186
      6184      6183      6186      6187      6184      6183      6186      6188
      6184      6183      6186      6189      6185      6183      6186      6187
      6185      6183      6186      6188      6185      6183      6186      6189
      6190      6193      6196      6197      6190      6193      6196      6198
      6190      6193      6196      6199      6191      6190      6193      6194
      6191      6190      6193      6195      6191      6190      6193      6196
      6192      6190      6193      6194      6192      6190      6193      6195
      6192      6190      6193      6196      6193      6196      6199      6200
      6193      6196      6199      6201      6193      6196      6199      6202
      6194      6193      6196      6197      6194      6193      6196      6198
      6194      6193      6196      6199      6195      6193      6196      6197
      6195      6193      6196      6198      6195      6193      6196      6199
      6196      6199      6202      6203      6196      6199      6202      6204
      6196      6199      6202      6205      6197      6196      6199      6200
      6197      6196      6199      6201      6197      6196      6199      6202
      6198      6196      6199      6200      6198      6196      6199      6201
      6198      6196      6199      6202      6199      6202      6205      6206
      6199      6202      6205      6207      6199      6202      6205      6208
      6200      6199      6202      6203      6200      6199      6202      6204
      6200      6199      6202      6205      6201      6199      6202      6203
      6201      6199      6202      6204      6201      6199      6202      6205
      6202      6205      6208      6209      6202      6205      6208      6210
      6202      6205      6208      6211      6203      6202      6205      6206
      6203      6202      6205      6207      6203      6202      6205      6208
      6204      6202      6205      6206      6204      6202      6205      6207
      6204      6202      6205      6208      6205      6208      6211      6212
      6205      6208      6211      6213      6205      6208      6211      6214
      6206      6205      6208      6209      6206      6205      6208      6210
      6206      6205      6208      6211      6207      6205      6208      6209
      6207      6205      6208      6210      6207      6205      6208      6211
      6208      6211      6214      6215      6208      6211      6214      6216
      6208      6211      6214      6217      6209      6208      6211      6212
      6209      6208      6211      6213      6209      6208      6211      6214
      6210      6208      6211      6212      6210      6208      6211      6213
      6210      6208      6211      6214      6211      6214      6217      6218
      6211      6214      6217      6219      6211      6214      6217      6220
      6212      6211      6214      6215      6212      6211      6214      6216
      6212      6211      6214      6217      6213      6211      6214      6215
      6213      6211      6214      6216      6213      6211      6214      6217
      6214      6217      6220      6221      6214      6217      6220      6222
      6214      6217      6220      6223      6215      6214      6217      6218
      6215      6214      6217      6219      6215      6214      6217      6220
      6216      6214      6217      6218      6216      6214      6217      6219
      6216      6214      6217      6220      6217      6220      6223      6224
      6217      6220      6223      6225      6217      6220      6223      6226
      6218      6217      6220      6221      6218      6217      6220      6222
      6218      6217      6220      6223      6219      6217      6220      6221
      6219      6217      6220      6222      6219      6217      6220      6223
      6220      6223      6226      6227      6220      6223      6226      6228
      6220      6223      6226      6229      6221      6220      6223      6224
      6221      6220      6223      6225      6221      6220      6223      6226
      6222      6220      6223      6224      6222      6220      6223      6225
      6222      6220      6223      6226      6223      6226      6229      6230
      6223      6226      6229      6231      6223      6226      6229      6232
      6224      6223      6226      6227      6224      6223      6226      6228
      6224      6223      6226      6229      6225      6223      6226      6227
      6225      6223      6226      6228      6225      6223      6226      6229
      6227      6226      6229      6230      6227      6226      6229      6231
      6227      6226      6229      6232      6228      6226      6229      6230
      6228      6226      6229      6231      6228      6226      6229      6232
      6233      6234      6249      6250      6233      6234      6249      6251
      6233      6234      6249      6255      6234      6233      6237      6238
      6234      6233      6237      6239      6234      6233      6237      6240
      6234      6233      6241      6242      6234      6233      6241      6243
      6234      6233      6241      6244      6234      6233      6245      6246
      6234      6233      6245      6247      6234      6233      6245      6248
      6234      6249      6255      6252      6235      6234      6233      6237
      6235      6234      6233      6241      6235      6234      6233      6245
      6235      6234      6249      6250      6235      6234      6249      6251
      6235      6234      6249      6255      6236      6234      6233      6237
      6236      6234      6233      6241      6236      6234      6233      6245
      6236      6234      6249      6250      6236      6234      6249      6251
      6236      6234      6249      6255      6237      6233      6234      6249
      6237      6233      6241      6242      6237      6233      6241      6243
      6237      6233      6241      6244      6237      6233      6245      6246
      6237      6233      6245      6247      6237      6233      6245      6248
      6238      6237      6233      6241      6238      6237      6233      6245
      6239      6237      6233      6241      6239      6237      6233      6245
      6240      6237      6233      6241      6240      6237      6233      6245
      6241      6233      6234      6249      6241      6233      6245      6246
      6241      6233      6245      6247      6241      6233      6245      6248
      6242      6241      6233      6245      6243      6241      6233      6245
      6244      6241      6233      6245      6245      6233      6234      6249
      6249      6255      6252      6253      6249      6255      6252      6254
      6249      6255      6252      6256      6250      6249      6255      6252
      6251      6249      6255      6252      6252      6256      6257      6258
      6252      6256      6257      6259      6252      6256      6257      6260
      6253      6252      6256      6257      6254      6252      6256      6257
      6255      6252      6256      6257      6256      6257      6260      6261
      6256      6257      6260      6262      6256      6257      6260      6268
      6257      6260      6262      6263      6257      6260      6268      6269
      6257      6260      6268      6270      6257      6260      6268      6271
      6258      6257      6260      6261      6258      6257      6260      6262
      6258      6257      6260      6268      6259      6257      6260      6261
      6259      6257      6260      6262      6259      6257      6260      6268
      6260      6262      6263      6264      6260      6262      6263      6265
      6260      6268      6271      6272      6261      6260      6262      6263
      6261      6260      6268      6269      6261      6260      6268      6270
      6261      6260      6268      6271      6262      6260      6268      6269
      6262      6260      6268      6270      6262      6260      6268      6271
      6262      6263      6265      6266      6262      6263      6265      6267
      6262      6263      6265      6277      6263      6262      6260      6268
      6263      6265      6277      6278      6263      6265      6277      6279
      6263      6265      6277      6280      6264      6263      6265      6266
      6264      6263      6265      6267      6264      6263      6265      6277
      6265      6277      6280      6281      6265      6277      6280      6282
      6265      6277      6280      6283      6266      6265      6277      6278
      6266      6265      6277      6279      6266      6265      6277      6280
      6267      6265      6277      6278      6267      6265      6277      6279
      6267      6265      6277      6280      6268      6271      6272      6273
      6268      6271      6272      6274      6269      6268      6271      6272
      6270      6268      6271      6272      6271      6272      6274      6275
      6271      6272      6274      6276      6271      6272      6274      6324
      6272      6274      6324      6325      6272      6274      6324      6326
      6272      6274      6324      6327      6273      6272      6274      6275
      6273      6272      6274      6276      6273      6272      6274      6324
      6274      6324      6327      6328      6274      6324      6327      6329
      6274      6324      6327      6330      6275      6274      6324      6325
      6275      6274      6324      6326      6275      6274      6324      6327
      6276      6274      6324      6325      6276      6274      6324      6326
      6276      6274      6324      6327      6277      6280      6283      6284
      6277      6280      6283      6285      6277      6280      6283      6286
      6278      6277      6280      6281      6278      6277      6280      6282
      6278      6277      6280      6283      6279      6277      6280      6281
      6279      6277      6280      6282      6279      6277      6280      6283
      6280      6283      6286      6287      6280      6283      6286      6288
      6280      6283      6286      6289      6281      6280      6283      6284
      6281      6280      6283      6285      6281      6280      6283      6286
      6282      6280      6283      6284      6282      6280      6283      6285
      6282      6280      6283      6286      6283      6286      6289      6290
      6283      6286      6289      6291      6283      6286      6289      6292
      6284      6283      6286      6287      6284      6283      6286      6288
      6284      6283      6286      6289      6285      6283      6286      6287
      6285      6283      6286      6288      6285      6283      6286      6289
      6286      6289      6292      6293      6286      6289      6292      6294
      6286      6289      6292      6295      6287      6286      6289      6290
      6287      6286      6289      6291      6287      6286      6289      6292
      6288      6286      6289      6290      6288      6286      6289      6291
      6288      6286      6289      6292      6289      6292      6295      6296
      6289      6292      6295      6297      6290      6289      6292      6293
      6290      6289      6292      6294      6290      6289      6292      6295
      6291      6289      6292      6293      6291      6289      6292      6294
      6291      6289      6292      6295      6292      6295      6297      6298
      6292      6295      6297      6299      6293      6292      6295      6296
      6293      6292      6295      6297      6294      6292      6295      6296
      6294      6292      6295      6297      6295      6297      6299      6300
      6295      6297      6299      6301      6295      6297      6299      6302
      6296      6295      6297      6298      6296      6295      6297      6299
      6297      6299      6302      6303      6297      6299      6302      6304
      6297      6299      6302      6305      6298      6297      6299      6300
      6298      6297      6299      6301      6298      6297      6299      6302
      6299      6302      6305      6306      6299      6302      6305      6307
      6299      6302      6305      6308      6300      6299      6302      6303
      6300      6299      6302      6304      6300      6299      6302      6305
      6301      6299      6302      6303      6301      6299      6302      6304
      6301      6299      6302      6305      6302      6305      6308      6309
      6302      6305      6308      6310      6302      6305      6308      6311
      6303      6302      6305      6306      6303      6302      6305      6307
      6303      6302      6305      6308      6304      6302      6305      6306
      6304      6302      6305      6307      6304      6302      6305      6308
      6305      6308      6311      6312      6305      6308      6311      6313
      6305      6308      6311      6314      6306      6305      6308      6309
      6306      6305      6308      6310      6306      6305      6308      6311
      6307      6305      6308      6309      6307      6305      6308      6310
      6307      6305      6308      6311      6308      6311      6314      6315
      6308      6311      6314      6316      6308      6311      6314      6317
      6309      6308      6311      6312      6309      6308      6311      6313
      6309      6308      6311      6314      6310      6308      6311      6312
      6310      6308      6311      6313      6310      6308      6311      6314
      6311      6314      6317      6318      6311      6314      6317      6319
      6311      6314      6317      6320      6312      6311      6314      6315
      6312      6311      6314      6316      6312      6311      6314      6317
      6313      6311      6314      6315      6313      6311      6314      6316
      6313      6311      6314      6317      6314      6317      6320      6321
      6314      6317      6320      6322      6314      6317      6320      6323
      6315      6314      6317      6318      6315      6314      6317      6319
      6315      6314      6317      6320      6316      6314      6317      6318
      6316      6314      6317      6319      6316      6314      6317      6320
      6318      6317      6320      6321      6318      6317      6320      6322
      6318      6317      6320      6323      6319      6317      6320      6321
      6319      6317      6320      6322      6319      6317      6320      6323
      6324      6327      6330      6331      6324      6327      6330      6332
      6324      6327      6330      6333      6325      6324      6327      6328
      6325      6324      6327      6329      6325      6324      6327      6330
      6326      6324      6327      6328      6326      6324      6327      6329
      6326      6324      6327      6330      6327      6330      6333      6334
      6327      6330      6333      6335      6327      6330      6333      6336
      6328      6327      6330      6331      6328      6327      6330      6332
      6328      6327      6330      6333      6329      6327      6330      6331
      6329      6327      6330      6332      6329      6327      6330      6333
      6330      6333      6336      6337      6330      6333      6336      6338
      6330      6333      6336      6339      6331      6330      6333      6334
      6331      6330      6333      6335      6331      6330      6333      6336
      6332      6330      6333      6334      6332      6330      6333      6335
      6332      6330      6333      6336      6333      6336      6339      6340
      6333      6336      6339      6341      6333      6336      6339      6342
      6334      6333      6336      6337      6334      6333      6336      6338
      6334      6333      6336      6339      6335      6333      6336      6337
      6335      6333      6336      6338      6335      6333      6336      6339
      6336      6339      6342      6343      6336      6339      6342      6344
      6336      6339      6342      6345      6337      6336      6339      6340
      6337      6336      6339      6341      6337      6336      6339      6342
      6338      6336      6339      6340      6338      6336      6339      6341
      6338      6336      6339      6342      6339      6342      6345      6346
      6339      6342      6345      6347      6339      6342      6345      6348
      6340      6339      6342      6343      6340      6339      6342      6344
      6340      6339      6342      6345      6341      6339      6342      6343
      6341      6339      6342      6344      6341      6339      6342      6345
      6342      6345      6348      6349      6342      6345      6348      6350
      6342      6345      6348      6351      6343      6342      6345      6346
      6343      6342      6345      6347      6343      6342      6345      6348
      6344      6342      6345      6346      6344      6342      6345      6347
      6344      6342      6345      6348      6345      6348      6351      6352
      6345      6348      6351      6353      6345      6348      6351      6354
      6346      6345      6348      6349      6346      6345      6348      6350
      6346      6345      6348      6351      6347      6345      6348      6349
      6347      6345      6348      6350      6347      6345      6348      6351
      6348      6351      6354      6355      6348      6351      6354      6356
      6348      6351      6354      6357      6349      6348      6351      6352
      6349      6348      6351      6353      6349      6348      6351      6354
      6350      6348      6351      6352      6350      6348      6351      6353
      6350      6348      6351      6354      6351      6354      6357      6358
      6351      6354      6357      6359      6351      6354      6357      6360
      6352      6351      6354      6355      6352      6351      6354      6356
      6352      6351      6354      6357      6353      6351      6354      6355
      6353      6351      6354      6356      6353      6351      6354      6357
      6354      6357      6360      6361      6354      6357      6360      6362
      6354      6357      6360      6363      6355      6354      6357      6358
      6355      6354      6357      6359      6355      6354      6357      6360
      6356      6354      6357      6358      6356      6354      6357      6359
      6356      6354      6357      6360      6357      6360      6363      6364
      6357      6360      6363      6365      6357      6360      6363      6366
      6358      6357      6360      6361      6358      6357      6360      6362
      6358      6357      6360      6363      6359      6357      6360      6361
      6359      6357      6360      6362      6359      6357      6360      6363
      6361      6360      6363      6364      6361      6360      6363      6365
      6361      6360      6363      6366      6362      6360      6363      6364
      6362      6360      6363      6365      6362      6360      6363      6366
      6367      6368      6383      6384      6367      6368      6383      6385
      6367      6368      6383      6389      6368      6367      6371      6372
      6368      6367      6371      6373      6368      6367      6371      6374
      6368      6367      6375      6376      6368      6367      6375      6377
      6368      6367      6375      6378      6368      6367      6379      6380
      6368      6367      6379      6381      6368      6367      6379      6382
      6368      6383      6389      6386      6369      6368      6367      6371
      6369      6368      6367      6375      6369      6368      6367      6379
      6369      6368      6383      6384      6369      6368      6383      6385
      6369      6368      6383      6389      6370      6368      6367      6371
      6370      6368      6367      6375      6370      6368      6367      6379
      6370      6368      6383      6384      6370      6368      6383      6385
      6370      6368      6383      6389      6371      6367      6368      6383
      6371      6367      6375      6376      6371      6367      6375      6377
      6371      6367      6375      6378      6371      6367      6379      6380
      6371      6367      6379      6381      6371      6367      6379      6382
      6372      6371      6367      6375      6372      6371      6367      6379
      6373      6371      6367      6375      6373      6371      6367      6379
      6374      6371      6367      6375      6374      6371      6367      6379
      6375      6367      6368      6383      6375      6367      6379      6380
      6375      6367      6379      6381      6375      6367      6379      6382
      6376      6375      6367      6379      6377      6375      6367      6379
      6378      6375      6367      6379      6379      6367      6368      6383
      6383      6389      6386      6387      6383      6389      6386      6388
      6383      6389      6386      6390      6384      6383      6389      6386
      6385      6383      6389      6386      6386      6390      6391      6392
      6386      6390      6391      6393      6386      6390      6391      6394
      6387      6386      6390      6391      6388      6386      6390      6391
      6389      6386      6390      6391      6390      6391      6394      6395
      6390      6391      6394      6396      6390      6391      6394      6402
      6391      6394      6396      6397      6391      6394      6402      6403
      6391      6394      6402      6404      6391      6394      6402      6405
      6392      6391      6394      6395      6392      6391      6394      6396
      6392      6391      6394      6402      6393      6391      6394      6395
      6393      6391      6394      6396      6393      6391      6394      6402
      6394      6396      6397      6398      6394      6396      6397      6399
      6394      6402      6405      6406      6395      6394      6396      6397
      6395      6394      6402      6403      6395      6394      6402      6404
      6395      6394      6402      6405      6396      6394      6402      6403
      6396      6394      6402      6404      6396      6394      6402      6405
      6396      6397      6399      6400      6396      6397      6399      6401
      6396      6397      6399      6411      6397      6396      6394      6402
      6397      6399      6411      6412      6397      6399      6411      6413
      6397      6399      6411      6414      6398      6397      6399      6400
      6398      6397      6399      6401      6398      6397      6399      6411
      6399      6411      6414      6415      6399      6411      6414      6416
      6399      6411      6414      6417      6400      6399      6411      6412
      6400      6399      6411      6413      6400      6399      6411      6414
      6401      6399      6411      6412      6401      6399      6411      6413
      6401      6399      6411      6414      6402      6405      6406      6407
      6402      6405      6406      6408      6403      6402      6405      6406
      6404      6402      6405      6406      6405      6406      6408      6409
      6405      6406      6408      6410      6405      6406      6408      6458
      6406      6408      6458      6459      6406      6408      6458      6460
      6406      6408      6458      6461      6407      6406      6408      6409
      6407      6406      6408      6410      6407      6406      6408      6458
      6408      6458      6461      6462      6408      6458      6461      6463
      6408      6458      6461      6464      6409      6408      6458      6459
      6409      6408      6458      6460      6409      6408      6458      6461
      6410      6408      6458      6459      6410      6408      6458      6460
      6410      6408      6458      6461      6411      6414      6417      6418
      6411      6414      6417      6419      6411      6414      6417      6420
      6412      6411      6414      6415      6412      6411      6414      6416
      6412      6411      6414      6417      6413      6411      6414      6415
      6413      6411      6414      6416      6413      6411      6414      6417
      6414      6417      6420      6421      6414      6417      6420      6422
      6414      6417      6420      6423      6415      6414      6417      6418
      6415      6414      6417      6419      6415      6414      6417      6420
      6416      6414      6417      6418      6416      6414      6417      6419
      6416      6414      6417      6420      6417      6420      6423      6424
      6417      6420      6423      6425      6417      6420      6423      6426
      6418      6417      6420      6421      6418      6417      6420      6422
      6418      6417      6420      6423      6419      6417      6420      6421
      6419      6417      6420      6422      6419      6417      6420      6423
      6420      6423      6426      6427      6420      6423      6426      6428
      6420      6423      6426      6429      6421      6420      6423      6424
      6421      6420      6423      6425      6421      6420      6423      6426
      6422      6420      6423      6424      6422      6420      6423      6425
      6422      6420      6423      6426      6423      6426      6429      6430
      6423      6426      6429      6431      6424      6423      6426      6427
      6424      6423      6426      6428      6424      6423      6426      6429
      6425      6423      6426      6427      6425      6423      6426      6428
      6425      6423      6426      6429      6426      6429      6431      6432
      6426      6429      6431      6433      6427      6426      6429      6430
      6427      6426      6429      6431      6428      6426      6429      6430
      6428      6426      6429      6431      6429      6431      6433      6434
      6429      6431      6433      6435      6429      6431      6433      6436
      6430      6429      6431      6432      6430      6429      6431      6433
      6431      6433      6436      6437      6431      6433      6436      6438
      6431      6433      6436      6439      6432      6431      6433      6434
      6432      6431      6433      6435      6432      6431      6433      6436
      6433      6436      6439      6440      6433      6436      6439      6441
      6433      6436      6439      6442      6434      6433      6436      6437
      6434      6433      6436      6438      6434      6433      6436      6439
      6435      6433      6436      6437      6435      6433      6436      6438
      6435      6433      6436      6439      6436      6439      6442      6443
      6436      6439      6442      6444      6436      6439      6442      6445
      6437      6436      6439      6440      6437      6436      6439      6441
      6437      6436      6439      6442      6438      6436      6439      6440
      6438      6436      6439      6441      6438      6436      6439      6442
      6439      6442      6445      6446      6439      6442      6445      6447
      6439      6442      6445      6448      6440      6439      6442      6443
      6440      6439      6442      6444      6440      6439      6442      6445
      6441      6439      6442      6443      6441      6439      6442      6444
      6441      6439      6442      6445      6442      6445      6448      6449
      6442      6445      6448      6450      6442      6445      6448      6451
      6443      6442      6445      6446      6443      6442      6445      6447
      6443      6442      6445      6448      6444      6442      6445      6446
      6444      6442      6445      6447      6444      6442      6445      6448
      6445      6448      6451      6452      6445      6448      6451      6453
      6445      6448      6451      6454      6446      6445      6448      6449
      6446      6445      6448      6450      6446      6445      6448      6451
      6447      6445      6448      6449      6447      6445      6448      6450
      6447      6445      6448      6451      6448      6451      6454      6455
      6448      6451      6454      6456      6448      6451      6454      6457
      6449      6448      6451      6452      6449      6448      6451      6453
      6449      6448      6451      6454      6450      6448      6451      6452
      6450      6448      6451      6453      6450      6448      6451      6454
      6452      6451      6454      6455      6452      6451      6454      6456
      6452      6451      6454      6457      6453      6451      6454      6455
      6453      6451      6454      6456      6453      6451      6454      6457
      6458      6461      6464      6465      6458      6461      6464      6466
      6458      6461      6464      6467      6459      6458      6461      6462
      6459      6458      6461      6463      6459      6458      6461      6464
      6460      6458      6461      6462      6460      6458      6461      6463
      6460      6458      6461      6464      6461      6464      6467      6468
      6461      6464      6467      6469      6461      6464      6467      6470
      6462      6461      6464      6465      6462      6461      6464      6466
      6462      6461      6464      6467      6463      6461      6464      6465
      6463      6461      6464      6466      6463      6461      6464      6467
      6464      6467      6470      6471      6464      6467      6470      6472
      6464      6467      6470      6473      6465      6464      6467      6468
      6465      6464      6467      6469      6465      6464      6467      6470
      6466      6464      6467      6468      6466      6464      6467      6469
      6466      6464      6467      6470      6467      6470      6473      6474
      6467      6470      6473      6475      6467      6470      6473      6476
      6468      6467      6470      6471      6468      6467      6470      6472
      6468      6467      6470      6473      6469      6467      6470      6471
      6469      6467      6470      6472      6469      6467      6470      6473
      6470      6473      6476      6477      6470      6473      6476      6478
      6470      6473      6476      6479      6471      6470      6473      6474
      6471      6470      6473      6475      6471      6470      6473      6476
      6472      6470      6473      6474      6472      6470      6473      6475
      6472      6470      6473      6476      6473      6476      6479      6480
      6473      6476      6479      6481      6473      6476      6479      6482
      6474      6473      6476      6477      6474      6473      6476      6478
      6474      6473      6476      6479      6475      6473      6476      6477
      6475      6473      6476      6478      6475      6473      6476      6479
      6476      6479      6482      6483      6476      6479      6482      6484
      6476      6479      6482      6485      6477      6476      6479      6480
      6477      6476      6479      6481      6477      6476      6479      6482
      6478      6476      6479      6480      6478      6476      6479      6481
      6478      6476      6479      6482      6479      6482      6485      6486
      6479      6482      6485      6487      6479      6482      6485      6488
      6480      6479      6482      6483      6480      6479      6482      6484
      6480      6479      6482      6485      6481      6479      6482      6483
      6481      6479      6482      6484      6481      6479      6482      6485
      6482      6485      6488      6489      6482      6485      6488      6490
      6482      6485      6488      6491      6483      6482      6485      6486
      6483      6482      6485      6487      6483      6482      6485      6488
      6484      6482      6485      6486      6484      6482      6485      6487
      6484      6482      6485      6488      6485      6488      6491      6492
      6485      6488      6491      6493      6485      6488      6491      6494
      6486      6485      6488      6489      6486      6485      6488      6490
      6486      6485      6488      6491      6487      6485      6488      6489
      6487      6485      6488      6490      6487      6485      6488      6491
      6488      6491      6494      6495      6488      6491      6494      6496
      6488      6491      6494      6497      6489      6488      6491      6492
      6489      6488      6491      6493      6489      6488      6491      6494
      6490      6488      6491      6492      6490      6488      6491      6493
      6490      6488      6491      6494      6491      6494      6497      6498
      6491      6494      6497      6499      6491      6494      6497      6500
      6492      6491      6494      6495      6492      6491      6494      6496
      6492      6491      6494      6497      6493      6491      6494      6495
      6493      6491      6494      6496      6493      6491      6494      6497
      6495      6494      6497      6498      6495      6494      6497      6499
      6495      6494      6497      6500      6496      6494      6497      6498
      6496      6494      6497      6499      6496      6494      6497      6500
      6501      6502      6517      6518      6501      6502      6517      6519
      6501      6502      6517      6523      6502      6501      6505      6506
      6502      6501      6505      6507      6502      6501      6505      6508
      6502      6501      6509      6510      6502      6501      6509      6511
      6502      6501      6509      6512      6502      6501      6513      6514
      6502      6501      6513      6515      6502      6501      6513      6516
      6502      6517      6523      6520      6503      6502      6501      6505
      6503      6502      6501      6509      6503      6502      6501      6513
      6503      6502      6517      6518      6503      6502      6517      6519
      6503      6502      6517      6523      6504      6502      6501      6505
      6504      6502      6501      6509      6504      6502      6501      6513
      6504      6502      6517      6518      6504      6502      6517      6519
      6504      6502      6517      6523      6505      6501      6502      6517
      6505      6501      6509      6510      6505      6501      6509      6511
      6505      6501      6509      6512      6505      6501      6513      6514
      6505      6501      6513      6515      6505      6501      6513      6516
      6506      6505      6501      6509      6506      6505      6501      6513
      6507      6505      6501      6509      6507      6505      6501      6513
      6508      6505      6501      6509      6508      6505      6501      6513
      6509      6501      6502      6517      6509      6501      6513      6514
      6509      6501      6513      6515      6509      6501      6513      6516
      6510      6509      6501      6513      6511      6509      6501      6513
      6512      6509      6501      6513      6513      6501      6502      6517
      6517      6523      6520      6521      6517      6523      6520      6522
      6517      6523      6520      6524      6518      6517      6523      6520
      6519      6517      6523      6520      6520      6524      6525      6526
      6520      6524      6525      6527      6520      6524      6525      6528
      6521      6520      6524      6525      6522      6520      6524      6525
      6523      6520      6524      6525      6524      6525      6528      6529
      6524      6525      6528      6530      6524      6525      6528      6536
      6525      6528      6530      6531      6525      6528      6536      6537
      6525      6528      6536      6538      6525      6528      6536      6539
      6526      6525      6528      6529      6526      6525      6528      6530
      6526      6525      6528      6536      6527      6525      6528      6529
      6527      6525      6528      6530      6527      6525      6528      6536
      6528      6530      6531      6532      6528      6530      6531      6533
      6528      6536      6539      6540      6529      6528      6530      6531
      6529      6528      6536      6537      6529      6528      6536      6538
      6529      6528      6536      6539      6530      6528      6536      6537
      6530      6528      6536      6538      6530      6528      6536      6539
      6530      6531      6533      6534      6530      6531      6533      6535
      6530      6531      6533      6545      6531      6530      6528      6536
      6531      6533      6545      6546      6531      6533      6545      6547
      6531      6533      6545      6548      6532      6531      6533      6534
      6532      6531      6533      6535      6532      6531      6533      6545
      6533      6545      6548      6549      6533      6545      6548      6550
      6533      6545      6548      6551      6534      6533      6545      6546
      6534      6533      6545      6547      6534      6533      6545      6548
      6535      6533      6545      6546      6535      6533      6545      6547
      6535      6533      6545      6548      6536      6539      6540      6541
      6536      6539      6540      6542      6537      6536      6539      6540
      6538      6536      6539      6540      6539      6540      6542      6543
      6539      6540      6542      6544      6539      6540      6542      6592
      6540      6542      6592      6593      6540      6542      6592      6594
      6540      6542      6592      6595      6541      6540      6542      6543
      6541      6540      6542      6544      6541      6540      6542      6592
      6542      6592      6595      6596      6542      6592      6595      6597
      6542      6592      6595      6598      6543      6542      6592      6593
      6543      6542      6592      6594      6543      6542      6592      6595
      6544      6542      6592      6593      6544      6542      6592      6594
      6544      6542      6592      6595      6545      6548      6551      6552
      6545      6548      6551      6553      6545      6548      6551      6554
      6546      6545      6548      6549      6546      6545      6548      6550
      6546      6545      6548      6551      6547      6545      6548      6549
      6547      6545      6548      6550      6547      6545      6548      6551
      6548      6551      6554      6555      6548      6551      6554      6556
      6548      6551      6554      6557      6549      6548      6551      6552
      6549      6548      6551      6553      6549      6548      6551      6554
      6550      6548      6551      6552      6550      6548      6551      6553
      6550      6548      6551      6554      6551      6554      6557      6558
      6551      6554      6557      6559      6551      6554      6557      6560
      6552      6551      6554      6555      6552      6551      6554      6556
      6552      6551      6554      6557      6553      6551      6554      6555
      6553      6551      6554      6556      6553      6551      6554      6557
      6554      6557      6560      6561      6554      6557      6560      6562
      6554      6557      6560      6563      6555      6554      6557      6558
      6555      6554      6557      6559      6555      6554      6557      6560
      6556      6554      6557      6558      6556      6554      6557      6559
      6556      6554      6557      6560      6557      6560      6563      6564
      6557      6560      6563      6565      6558      6557      6560      6561
      6558      6557      6560      6562      6558      6557      6560      6563
      6559      6557      6560      6561      6559      6557      6560      6562
      6559      6557      6560      6563      6560      6563      6565      6566
      6560      6563      6565      6567      6561      6560      6563      6564
      6561      6560      6563      6565      6562      6560      6563      6564
      6562      6560      6563      6565      6563      6565      6567      6568
      6563      6565      6567      6569      6563      6565      6567      6570
      6564      6563      6565      6566      6564      6563      6565      6567
      6565      6567      6570      6571      6565      6567      6570      6572
      6565      6567      6570      6573      6566      6565      6567      6568
      6566      6565      6567      6569      6566      6565      6567      6570
      6567      6570      6573      6574      6567      6570      6573      6575
      6567      6570      6573      6576      6568      6567      6570      6571
      6568      6567      6570      6572      6568      6567      6570      6573
      6569      6567      6570      6571      6569      6567      6570      6572
      6569      6567      6570      6573      6570      6573      6576      6577
      6570      6573      6576      6578      6570      6573      6576      6579
      6571      6570      6573      6574      6571      6570      6573      6575
      6571      6570      6573      6576      6572      6570      6573      6574
      6572      6570      6573      6575      6572      6570      6573      6576
      6573      6576      6579      6580      6573      6576      6579      6581
      6573      6576      6579      6582      6574      6573      6576      6577
      6574      6573      6576      6578      6574      6573      6576      6579
      6575      6573      6576      6577      6575      6573      6576      6578
      6575      6573      6576      6579      6576      6579      6582      6583
      6576      6579      6582      6584      6576      6579      6582      6585
      6577      6576      6579      6580      6577      6576      6579      6581
      6577      6576      6579      6582      6578      6576      6579      6580
      6578      6576      6579      6581      6578      6576      6579      6582
      6579      6582      6585      6586      6579      6582      6585      6587
      6579      6582      6585      6588      6580      6579      6582      6583
      6580      6579      6582      6584      6580      6579      6582      6585
      6581      6579      6582      6583      6581      6579      6582      6584
      6581      6579      6582      6585      6582      6585      6588      6589
      6582      6585      6588      6590      6582      6585      6588      6591
      6583      6582      6585      6586      6583      6582      6585      6587
      6583      6582      6585      6588      6584      6582      6585      6586
      6584      6582      6585      6587      6584      6582      6585      6588
      6586      6585      6588      6589      6586      6585      6588      6590
      6586      6585      6588      6591      6587      6585      6588      6589
      6587      6585      6588      6590      6587      6585      6588      6591
      6592      6595      6598      6599      6592      6595      6598      6600
      6592      6595      6598      6601      6593      6592      6595      6596
      6593      6592      6595      6597      6593      6592      6595      6598
      6594      6592      6595      6596      6594      6592      6595      6597
      6594      6592      6595      6598      6595      6598      6601      6602
      6595      6598      6601      6603      6595      6598      6601      6604
      6596      6595      6598      6599      6596      6595      6598      6600
      6596      6595      6598      6601      6597      6595      6598      6599
      6597      6595      6598      6600      6597      6595      6598      6601
      6598      6601      6604      6605      6598      6601      6604      6606
      6598      6601      6604      6607      6599      6598      6601      6602
      6599      6598      6601      6603      6599      6598      6601      6604
      6600      6598      6601      6602      6600      6598      6601      6603
      6600      6598      6601      6604      6601      6604      6607      6608
      6601      6604      6607      6609      6601      6604      6607      6610
      6602      6601      6604      6605      6602      6601      6604      6606
      6602      6601      6604      6607      6603      6601      6604      6605
      6603      6601      6604      6606      6603      6601      6604      6607
      6604      6607      6610      6611      6604      6607      6610      6612
      6604      6607      6610      6613      6605      6604      6607      6608
      6605      6604      6607      6609      6605      6604      6607      6610
      6606      6604      6607      6608      6606      6604      6607      6609
      6606      6604      6607      6610      6607      6610      6613      6614
      6607      6610      6613      6615      6607      6610      6613      6616
      6608      6607      6610      6611      6608      6607      6610      6612
      6608      6607      6610      6613      6609      6607      6610      6611
      6609      6607      6610      6612      6609      6607      6610      6613
      6610      6613      6616      6617      6610      6613      6616      6618
      6610      6613      6616      6619      6611      6610      6613      6614
      6611      6610      6613      6615      6611      6610      6613      6616
      6612      6610      6613      6614      6612      6610      6613      6615
      6612      6610      6613      6616      6613      6616      6619      6620
      6613      6616      6619      6621      6613      6616      6619      6622
      6614      6613      6616      6617      6614      6613      6616      6618
      6614      6613      6616      6619      6615      6613      6616      6617
      6615      6613      6616      6618      6615      6613      6616      6619
      6616      6619      6622      6623      6616      6619      6622      6624
      6616      6619      6622      6625      6617      6616      6619      6620
      6617      6616      6619      6621      6617      6616      6619      6622
      6618      6616      6619      6620      6618      6616      6619      6621
      6618      6616      6619      6622      6619      6622      6625      6626
      6619      6622      6625      6627      6619      6622      6625      6628
      6620      6619      6622      6623      6620      6619      6622      6624
      6620      6619      6622      6625      6621      6619      6622      6623
      6621      6619      6622      6624      6621      6619      6622      6625
      6622      6625      6628      6629      6622      6625      6628      6630
      6622      6625      6628      6631      6623      6622      6625      6626
      6623      6622      6625      6627      6623      6622      6625      6628
      6624      6622      6625      6626      6624      6622      6625      6627
      6624      6622      6625      6628      6625      6628      6631      6632
      6625      6628      6631      6633      6625      6628      6631      6634
      6626      6625      6628      6629      6626      6625      6628      6630
      6626      6625      6628      6631      6627      6625      6628      6629
      6627      6625      6628      6630      6627      6625      6628      6631
      6629      6628      6631      6632      6629      6628      6631      6633
      6629      6628      6631      6634      6630      6628      6631      6632
      6630      6628      6631      6633      6630      6628      6631      6634
      6635      6636      6651      6652      6635      6636      6651      6653
      6635      6636      6651      6657      6636      6635      6639      6640
      6636      6635      6639      6641      6636      6635      6639      6642
      6636      6635      6643      6644      6636      6635      6643      6645
      6636      6635      6643      6646      6636      6635      6647      6648
      6636      6635      6647      6649      6636      6635      6647      6650
      6636      6651      6657      6654      6637      6636      6635      6639
      6637      6636      6635      6643      6637      6636      6635      6647
      6637      6636      6651      6652      6637      6636      6651      6653
      6637      6636      6651      6657      6638      6636      6635      6639
      6638      6636      6635      6643      6638      6636      6635      6647
      6638      6636      6651      6652      6638      6636      6651      6653
      6638      6636      6651      6657      6639      6635      6636      6651
      6639      6635      6643      6644      6639      6635      6643      6645
      6639      6635      6643      6646      6639      6635      6647      6648
      6639      6635      6647      6649      6639      6635      6647      6650
      6640      6639      6635      6643      6640      6639      6635      6647
      6641      6639      6635      6643      6641      6639      6635      6647
      6642      6639      6635      6643      6642      6639      6635      6647
      6643      6635      6636      6651      6643      6635      6647      6648
      6643      6635      6647      6649      6643      6635      6647      6650
      6644      6643      6635      6647      6645      6643      6635      6647
      6646      6643      6635      6647      6647      6635      6636      6651
      6651      6657      6654      6655      6651      6657      6654      6656
      6651      6657      6654      6658      6652      6651      6657      6654
      6653      6651      6657      6654      6654      6658      6659      6660
      6654      6658      6659      6661      6654      6658      6659      6662
      6655      6654      6658      6659      6656      6654      6658      6659
      6657      6654      6658      6659      6658      6659      6662      6663
      6658      6659      6662      6664      6658      6659      6662      6670
      6659      6662      6664      6665      6659      6662      6670      6671
      6659      6662      6670      6672      6659      6662      6670      6673
      6660      6659      6662      6663      6660      6659      6662      6664
      6660      6659      6662      6670      6661      6659      6662      6663
      6661      6659      6662      6664      6661      6659      6662      6670
      6662      6664      6665      6666      6662      6664      6665      6667
      6662      6670      6673      6674      6663      6662      6664      6665
      6663      6662      6670      6671      6663      6662      6670      6672
      6663      6662      6670      6673      6664      6662      6670      6671
      6664      6662      6670      6672      6664      6662      6670      6673
      6664      6665      6667      6668      6664      6665      6667      6669
      6664      6665      6667      6679      6665      6664      6662      6670
      6665      6667      6679      6680      6665      6667      6679      6681
      6665      6667      6679      6682      6666      6665      6667      6668
      6666      6665      6667      6669      6666      6665      6667      6679
      6667      6679      6682      6683      6667      6679      6682      6684
      6667      6679      6682      6685      6668      6667      6679      6680
      6668      6667      6679      6681      6668      6667      6679      6682
      6669      6667      6679      6680      6669      6667      6679      6681
      6669      6667      6679      6682      6670      6673      6674      6675
      6670      6673      6674      6676      6671      6670      6673      6674
      6672      6670      6673      6674      6673      6674      6676      6677
      6673      6674      6676      6678      6673      6674      6676      6726
      6674      6676      6726      6727      6674      6676      6726      6728
      6674      6676      6726      6729      6675      6674      6676      6677
      6675      6674      6676      6678      6675      6674      6676      6726
      6676      6726      6729      6730      6676      6726      6729      6731
      6676      6726      6729      6732      6677      6676      6726      6727
      6677      6676      6726      6728      6677      6676      6726      6729
      6678      6676      6726      6727      6678      6676      6726      6728
      6678      6676      6726      6729      6679      6682      6685      6686
      6679      6682      6685      6687      6679      6682      6685      6688
      6680      6679      6682      6683      6680      6679      6682      6684
      6680      6679      6682      6685      6681      6679      6682      6683
      6681      6679      6682      6684      6681      6679      6682      6685
      6682      6685      6688      6689      6682      6685      6688      6690
      6682      6685      6688      6691      6683      6682      6685      6686
      6683      6682      6685      6687      6683      6682      6685      6688
      6684      6682      6685      6686      6684      6682      6685      6687
      6684      6682      6685      6688      6685      6688      6691      6692
      6685      6688      6691      6693      6685      6688      6691      6694
      6686      6685      6688      6689      6686      6685      6688      6690
      6686      6685      6688      6691      6687      6685      6688      6689
      6687      6685      6688      6690      6687      6685      6688      6691
      6688      6691      6694      6695      6688      6691      6694      6696
      6688      6691      6694      6697      6689      6688      6691      6692
      6689      6688      6691      6693      6689      6688      6691      6694
      6690      6688      6691      6692      6690      6688      6691      6693
      6690      6688      6691      6694      6691      6694      6697      6698
      6691      6694      6697      6699      6692      6691      6694      6695
      6692      6691      6694      6696      6692      6691      6694      6697
      6693      6691      6694      6695      6693      6691      6694      6696
      6693      6691      6694      6697      6694      6697      6699      6700
      6694      6697      6699      6701      6695      6694      6697      6698
      6695      6694      6697      6699      6696      6694      6697      6698
      6696      6694      6697      6699      6697      6699      6701      6702
      6697      6699      6701      6703      6697      6699      6701      6704
      6698      6697      6699      6700      6698      6697      6699      6701
      6699      6701      6704      6705      6699      6701      6704      6706
      6699      6701      6704      6707      6700      6699      6701      6702
      6700      6699      6701      6703      6700      6699      6701      6704
      6701      6704      6707      6708      6701      6704      6707      6709
      6701      6704      6707      6710      6702      6701      6704      6705
      6702      6701      6704      6706      6702      6701      6704      6707
      6703      6701      6704      6705      6703      6701      6704      6706
      6703      6701      6704      6707      6704      6707      6710      6711
      6704      6707      6710      6712      6704      6707      6710      6713
      6705      6704      6707      6708      6705      6704      6707      6709
      6705      6704      6707      6710      6706      6704      6707      6708
      6706      6704      6707      6709      6706      6704      6707      6710
      6707      6710      6713      6714      6707      6710      6713      6715
      6707      6710      6713      6716      6708      6707      6710      6711
      6708      6707      6710      6712      6708      6707      6710      6713
      6709      6707      6710      6711      6709      6707      6710      6712
      6709      6707      6710      6713      6710      6713      6716      6717
      6710      6713      6716      6718      6710      6713      6716      6719
      6711      6710      6713      6714      6711      6710      6713      6715
      6711      6710      6713      6716      6712      6710      6713      6714
      6712      6710      6713      6715      6712      6710      6713      6716
      6713      6716      6719      6720      6713      6716      6719      6721
      6713      6716      6719      6722      6714      6713      6716      6717
      6714      6713      6716      6718      6714      6713      6716      6719
      6715      6713      6716      6717      6715      6713      6716      6718
      6715      6713      6716      6719      6716      6719      6722      6723
      6716      6719      6722      6724      6716      6719      6722      6725
      6717      6716      6719      6720      6717      6716      6719      6721
      6717      6716      6719      6722      6718      6716      6719      6720
      6718      6716      6719      6721      6718      6716      6719      6722
      6720      6719      6722      6723      6720      6719      6722      6724
      6720      6719      6722      6725      6721      6719      6722      6723
      6721      6719      6722      6724      6721      6719      6722      6725
      6726      6729      6732      6733      6726      6729      6732      6734
      6726      6729      6732      6735      6727      6726      6729      6730
      6727      6726      6729      6731      6727      6726      6729      6732
      6728      6726      6729      6730      6728      6726      6729      6731
      6728      6726      6729      6732      6729      6732      6735      6736
      6729      6732      6735      6737      6729      6732      6735      6738
      6730      6729      6732      6733      6730      6729      6732      6734
      6730      6729      6732      6735      6731      6729      6732      6733
      6731      6729      6732      6734      6731      6729      6732      6735
      6732      6735      6738      6739      6732      6735      6738      6740
      6732      6735      6738      6741      6733      6732      6735      6736
      6733      6732      6735      6737      6733      6732      6735      6738
      6734      6732      6735      6736      6734      6732      6735      6737
      6734      6732      6735      6738      6735      6738      6741      6742
      6735      6738      6741      6743      6735      6738      6741      6744
      6736      6735      6738      6739      6736      6735      6738      6740
      6736      6735      6738      6741      6737      6735      6738      6739
      6737      6735      6738      6740      6737      6735      6738      6741
      6738      6741      6744      6745      6738      6741      6744      6746
      6738      6741      6744      6747      6739      6738      6741      6742
      6739      6738      6741      6743      6739      6738      6741      6744
      6740      6738      6741      6742      6740      6738      6741      6743
      6740      6738      6741      6744      6741      6744      6747      6748
      6741      6744      6747      6749      6741      6744      6747      6750
      6742      6741      6744      6745      6742      6741      6744      6746
      6742      6741      6744      6747      6743      6741      6744      6745
      6743      6741      6744      6746      6743      6741      6744      6747
      6744      6747      6750      6751      6744      6747      6750      6752
      6744      6747      6750      6753      6745      6744      6747      6748
      6745      6744      6747      6749      6745      6744      6747      6750
      6746      6744      6747      6748      6746      6744      6747      6749
      6746      6744      6747      6750      6747      6750      6753      6754
      6747      6750      6753      6755      6747      6750      6753      6756
      6748      6747      6750      6751      6748      6747      6750      6752
      6748      6747      6750      6753      6749      6747      6750      6751
      6749      6747      6750      6752      6749      6747      6750      6753
      6750      6753      6756      6757      6750      6753      6756      6758
      6750      6753      6756      6759      6751      6750      6753      6754
      6751      6750      6753      6755      6751      6750      6753      6756
      6752      6750      6753      6754      6752      6750      6753      6755
      6752      6750      6753      6756      6753      6756      6759      6760
      6753      6756      6759      6761      6753      6756      6759      6762
      6754      6753      6756      6757      6754      6753      6756      6758
      6754      6753      6756      6759      6755      6753      6756      6757
      6755      6753      6756      6758      6755      6753      6756      6759
      6756      6759      6762      6763      6756      6759      6762      6764
      6756      6759      6762      6765      6757      6756      6759      6760
      6757      6756      6759      6761      6757      6756      6759      6762
      6758      6756      6759      6760      6758      6756      6759      6761
      6758      6756      6759      6762      6759      6762      6765      6766
      6759      6762      6765      6767      6759      6762      6765      6768
      6760      6759      6762      6763      6760      6759      6762      6764
      6760      6759      6762      6765      6761      6759      6762      6763
      6761      6759      6762      6764      6761      6759      6762      6765
      6763      6762      6765      6766      6763      6762      6765      6767
      6763      6762      6765      6768      6764      6762      6765      6766
      6764      6762      6765      6767      6764      6762      6765      6768
      6769      6770      6785      6786      6769      6770      6785      6787
      6769      6770      6785      6791      6770      6769      6773      6774
      6770      6769      6773      6775      6770      6769      6773      6776
      6770      6769      6777      6778      6770      6769      6777      6779
      6770      6769      6777      6780      6770      6769      6781      6782
      6770      6769      6781      6783      6770      6769      6781      6784
      6770      6785      6791      6788      6771      6770      6769      6773
      6771      6770      6769      6777      6771      6770      6769      6781
      6771      6770      6785      6786      6771      6770      6785      6787
      6771      6770      6785      6791      6772      6770      6769      6773
      6772      6770      6769      6777      6772      6770      6769      6781
      6772      6770      6785      6786      6772      6770      6785      6787
      6772      6770      6785      6791      6773      6769      6770      6785
      6773      6769      6777      6778      6773      6769      6777      6779
      6773      6769      6777      6780      6773      6769      6781      6782
      6773      6769      6781      6783      6773      6769      6781      6784
      6774      6773      6769      6777      6774      6773      6769      6781
      6775      6773      6769      6777      6775      6773      6769      6781
      6776      6773      6769      6777      6776      6773      6769      6781
      6777      6769      6770      6785      6777      6769      6781      6782
      6777      6769      6781      6783      6777      6769      6781      6784
      6778      6777      6769      6781      6779      6777      6769      6781
      6780      6777      6769      6781      6781      6769      6770      6785
      6785      6791      6788      6789      6785      6791      6788      6790
      6785      6791      6788      6792      6786      6785      6791      6788
      6787      6785      6791      6788      6788      6792      6793      6794
      6788      6792      6793      6795      6788      6792      6793      6796
      6789      6788      6792      6793      6790      6788      6792      6793
      6791      6788      6792      6793      6792      6793      6796      6797
      6792      6793      6796      6798      6792      6793      6796      6804
      6793      6796      6798      6799      6793      6796      6804      6805
      6793      6796      6804      6806      6793      6796      6804      6807
      6794      6793      6796      6797      6794      6793      6796      6798
      6794      6793      6796      6804      6795      6793      6796      6797
      6795      6793      6796      6798      6795      6793      6796      6804
      6796      6798      6799      6800      6796      6798      6799      6801
      6796      6804      6807      6808      6797      6796      6798      6799
      6797      6796      6804      6805      6797      6796      6804      6806
      6797      6796      6804      6807      6798      6796      6804      6805
      6798      6796      6804      6806      6798      6796      6804      6807
      6798      6799      6801      6802      6798      6799      6801      6803
      6798      6799      6801      6813      6799      6798      6796      6804
      6799      6801      6813      6814      6799      6801      6813      6815
      6799      6801      6813      6816      6800      6799      6801      6802
      6800      6799      6801      6803      6800      6799      6801      6813
      6801      6813      6816      6817      6801      6813      6816      6818
      6801      6813      6816      6819      6802      6801      6813      6814
      6802      6801      6813      6815      6802      6801      6813      6816
      6803      6801      6813      6814      6803      6801      6813      6815
      6803      6801      6813      6816      6804      6807      6808      6809
      6804      6807      6808      6810      6805      6804      6807      6808
      6806      6804      6807      6808      6807      6808      6810      6811
      6807      6808      6810      6812      6807      6808      6810      6860
      6808      6810      6860      6861      6808      6810      6860      6862
      6808      6810      6860      6863      6809      6808      6810      6811
      6809      6808      6810      6812      6809      6808      6810      6860
      6810      6860      6863      6864      6810      6860      6863      6865
      6810      6860      6863      6866      6811      6810      6860      6861
      6811      6810      6860      6862      6811      6810      6860      6863
      6812      6810      6860      6861      6812      6810      6860      6862
      6812      6810      6860      6863      6813      6816      6819      6820
      6813      6816      6819      6821      6813      6816      6819      6822
      6814      6813      6816      6817      6814      6813      6816      6818
      6814      6813      6816      6819      6815      6813      6816      6817
      6815      6813      6816      6818      6815      6813      6816      6819
      6816      6819      6822      6823      6816      6819      6822      6824
      6816      6819      6822      6825      6817      6816      6819      6820
      6817      6816      6819      6821      6817      6816      6819      6822
      6818      6816      6819      6820      6818      6816      6819      6821
      6818      6816      6819      6822      6819      6822      6825      6826
      6819      6822      6825      6827      6819      6822      6825      6828
      6820      6819      6822      6823      6820      6819      6822      6824
      6820      6819      6822      6825      6821      6819      6822      6823
      6821      6819      6822      6824      6821      6819      6822      6825
      6822      6825      6828      6829      6822      6825      6828      6830
      6822      6825      6828      6831      6823      6822      6825      6826
      6823      6822      6825      6827      6823      6822      6825      6828
      6824      6822      6825      6826      6824      6822      6825      6827
      6824      6822      6825      6828      6825      6828      6831      6832
      6825      6828      6831      6833      6826      6825      6828      6829
      6826      6825      6828      6830      6826      6825      6828      6831
      6827      6825      6828      6829      6827      6825      6828      6830
      6827      6825      6828      6831      6828      6831      6833      6834
      6828      6831      6833      6835      6829      6828      6831      6832
      6829      6828      6831      6833      6830      6828      6831      6832
      6830      6828      6831      6833      6831      6833      6835      6836
      6831      6833      6835      6837      6831      6833      6835      6838
      6832      6831      6833      6834      6832      6831      6833      6835
      6833      6835      6838      6839      6833      6835      6838      6840
      6833      6835      6838      6841      6834      6833      6835      6836
      6834      6833      6835      6837      6834      6833      6835      6838
      6835      6838      6841      6842      6835      6838      6841      6843
      6835      6838      6841      6844      6836      6835      6838      6839
      6836      6835      6838      6840      6836      6835      6838      6841
      6837      6835      6838      6839      6837      6835      6838      6840
      6837      6835      6838      6841      6838      6841      6844      6845
      6838      6841      6844      6846      6838      6841      6844      6847
      6839      6838      6841      6842      6839      6838      6841      6843
      6839      6838      6841      6844      6840      6838      6841      6842
      6840      6838      6841      6843      6840      6838      6841      6844
      6841      6844      6847      6848      6841      6844      6847      6849
      6841      6844      6847      6850      6842      6841      6844      6845
      6842      6841      6844      6846      6842      6841      6844      6847
      6843      6841      6844      6845      6843      6841      6844      6846
      6843      6841      6844      6847      6844      6847      6850      6851
      6844      6847      6850      6852      6844      6847      6850      6853
      6845      6844      6847      6848      6845      6844      6847      6849
      6845      6844      6847      6850      6846      6844      6847      6848
      6846      6844      6847      6849      6846      6844      6847      6850
      6847      6850      6853      6854      6847      6850      6853      6855
      6847      6850      6853      6856      6848      6847      6850      6851
      6848      6847      6850      6852      6848      6847      6850      6853
      6849      6847      6850      6851      6849      6847      6850      6852
      6849      6847      6850      6853      6850      6853      6856      6857
      6850      6853      6856      6858      6850      6853      6856      6859
      6851      6850      6853      6854      6851      6850      6853      6855
      6851      6850      6853      6856      6852      6850      6853      6854
      6852      6850      6853      6855      6852      6850      6853      6856
      6854      6853      6856      6857      6854      6853      6856      6858
      6854      6853      6856      6859      6855      6853      6856      6857
      6855      6853      6856      6858      6855      6853      6856      6859
      6860      6863      6866      6867      6860      6863      6866      6868
      6860      6863      6866      6869      6861      6860      6863      6864
      6861      6860      6863      6865      6861      6860      6863      6866
      6862      6860      6863      6864      6862      6860      6863      6865
      6862      6860      6863      6866      6863      6866      6869      6870
      6863      6866      6869      6871      6863      6866      6869      6872
      6864      6863      6866      6867      6864      6863      6866      6868
      6864      6863      6866      6869      6865      6863      6866      6867
      6865      6863      6866      6868      6865      6863      6866      6869
      6866      6869      6872      6873      6866      6869      6872      6874
      6866      6869      6872      6875      6867      6866      6869      6870
      6867      6866      6869      6871      6867      6866      6869      6872
      6868      6866      6869      6870      6868      6866      6869      6871
      6868      6866      6869      6872      6869      6872      6875      6876
      6869      6872      6875      6877      6869      6872      6875      6878
      6870      6869      6872      6873      6870      6869      6872      6874
      6870      6869      6872      6875      6871      6869      6872      6873
      6871      6869      6872      6874      6871      6869      6872      6875
      6872      6875      6878      6879      6872      6875      6878      6880
      6872      6875      6878      6881      6873      6872      6875      6876
      6873      6872      6875      6877      6873      6872      6875      6878
      6874      6872      6875      6876      6874      6872      6875      6877
      6874      6872      6875      6878      6875      6878      6881      6882
      6875      6878      6881      6883      6875      6878      6881      6884
      6876      6875      6878      6879      6876      6875      6878      6880
      6876      6875      6878      6881      6877      6875      6878      6879
      6877      6875      6878      6880      6877      6875      6878      6881
      6878      6881      6884      6885      6878      6881      6884      6886
      6878      6881      6884      6887      6879      6878      6881      6882
      6879      6878      6881      6883      6879      6878      6881      6884
      6880      6878      6881      6882      6880      6878      6881      6883
      6880      6878      6881      6884      6881      6884      6887      6888
      6881      6884      6887      6889      6881      6884      6887      6890
      6882      6881      6884      6885      6882      6881      6884      6886
      6882      6881      6884      6887      6883      6881      6884      6885
      6883      6881      6884      6886      6883      6881      6884      6887
      6884      6887      6890      6891      6884      6887      6890      6892
      6884      6887      6890      6893      6885      6884      6887      6888
      6885      6884      6887      6889      6885      6884      6887      6890
      6886      6884      6887      6888      6886      6884      6887      6889
      6886      6884      6887      6890      6887      6890      6893      6894
      6887      6890      6893      6895      6887      6890      6893      6896
      6888      6887      6890      6891      6888      6887      6890      6892
      6888      6887      6890      6893      6889      6887      6890      6891
      6889      6887      6890      6892      6889      6887      6890      6893
      6890      6893      6896      6897      6890      6893      6896      6898
      6890      6893      6896      6899      6891      6890      6893      6894
      6891      6890      6893      6895      6891      6890      6893      6896
      6892      6890      6893      6894      6892      6890      6893      6895
      6892      6890      6893      6896      6893      6896      6899      6900
      6893      6896      6899      6901      6893      6896      6899      6902
      6894      6893      6896      6897      6894      6893      6896      6898
      6894      6893      6896      6899      6895      6893      6896      6897
      6895      6893      6896      6898      6895      6893      6896      6899
      6897      6896      6899      6900      6897      6896      6899      6901
      6897      6896      6899      6902      6898      6896      6899      6900
      6898      6896      6899      6901      6898      6896      6899      6902
      6903      6904      6919      6920      6903      6904      6919      6921
      6903      6904      6919      6925      6904      6903      6907      6908
      6904      6903      6907      6909      6904      6903      6907      6910
      6904      6903      6911      6912      6904      6903      6911      6913
      6904      6903      6911      6914      6904      6903      6915      6916
      6904      6903      6915      6917      6904      6903      6915      6918
      6904      6919      6925      6922      6905      6904      6903      6907
      6905      6904      6903      6911      6905      6904      6903      6915
      6905      6904      6919      6920      6905      6904      6919      6921
      6905      6904      6919      6925      6906      6904      6903      6907
      6906      6904      6903      6911      6906      6904      6903      6915
      6906      6904      6919      6920      6906      6904      6919      6921
      6906      6904      6919      6925      6907      6903      6904      6919
      6907      6903      6911      6912      6907      6903      6911      6913
      6907      6903      6911      6914      6907      6903      6915      6916
      6907      6903      6915      6917      6907      6903      6915      6918
      6908      6907      6903      6911      6908      6907      6903      6915
      6909      6907      6903      6911      6909      6907      6903      6915
      6910      6907      6903      6911      6910      6907      6903      6915
      6911      6903      6904      6919      6911      6903      6915      6916
      6911      6903      6915      6917      6911      6903      6915      6918
      6912      6911      6903      6915      6913      6911      6903      6915
      6914      6911      6903      6915      6915      6903      6904      6919
      6919      6925      6922      6923      6919      6925      6922      6924
      6919      6925      6922      6926      6920      6919      6925      6922
      6921      6919      6925      6922      6922      6926      6927      6928
      6922      6926      6927      6929      6922      6926      6927      6930
      6923      6922      6926      6927      6924      6922      6926      6927
      6925      6922      6926      6927      6926      6927      6930      6931
      6926      6927      6930      6932      6926      6927      6930      6938
      6927      6930      6932      6933      6927      6930      6938      6939
      6927      6930      6938      6940      6927      6930      6938      6941
      6928      6927      6930      6931      6928      6927      6930      6932
      6928      6927      6930      6938      6929      6927      6930      6931
      6929      6927      6930      6932      6929      6927      6930      6938
      6930      6932      6933      6934      6930      6932      6933      6935
      6930      6938      6941      6942      6931      6930      6932      6933
      6931      6930      6938      6939      6931      6930      6938      6940
      6931      6930      6938      6941      6932      6930      6938      6939
      6932      6930      6938      6940      6932      6930      6938      6941
      6932      6933      6935      6936      6932      6933      6935      6937
      6932      6933      6935      6947      6933      6932      6930      6938
      6933      6935      6947      6948      6933      6935      6947      6949
      6933      6935      6947      6950      6934      6933      6935      6936
      6934      6933      6935      6937      6934      6933      6935      6947
      6935      6947      6950      6951      6935      6947      6950      6952
      6935      6947      6950      6953      6936      6935      6947      6948
      6936      6935      6947      6949      6936      6935      6947      6950
      6937      6935      6947      6948      6937      6935      6947      6949
      6937      6935      6947      6950      6938      6941      6942      6943
      6938      6941      6942      6944      6939      6938      6941      6942
      6940      6938      6941      6942      6941      6942      6944      6945
      6941      6942      6944      6946      6941      6942      6944      6994
      6942      6944      6994      6995      6942      6944      6994      6996
      6942      6944      6994      6997      6943      6942      6944      6945
      6943      6942      6944      6946      6943      6942      6944      6994
      6944      6994      6997      6998      6944      6994      6997      6999
      6944      6994      6997      7000      6945      6944      6994      6995
      6945      6944      6994      6996      6945      6944      6994      6997
      6946      6944      6994      6995      6946      6944      6994      6996
      6946      6944      6994      6997      6947      6950      6953      6954
      6947      6950      6953      6955      6947      6950      6953      6956
      6948      6947      6950      6951      6948      6947      6950      6952
      6948      6947      6950      6953      6949      6947      6950      6951
      6949      6947      6950      6952      6949      6947      6950      6953
      6950      6953      6956      6957      6950      6953      6956      6958
      6950      6953      6956      6959      6951      6950      6953      6954
      6951      6950      6953      6955      6951      6950      6953      6956
      6952      6950      6953      6954      6952      6950      6953      6955
      6952      6950      6953      6956      6953      6956      6959      6960
      6953      6956      6959      6961      6953      6956      6959      6962
      6954      6953      6956      6957      6954      6953      6956      6958
      6954      6953      6956      6959      6955      6953      6956      6957
      6955      6953      6956      6958      6955      6953      6956      6959
      6956      6959      6962      6963      6956      6959      6962      6964
      6956      6959      6962      6965      6957      6956      6959      6960
      6957      6956      6959      6961      6957      6956      6959      6962
      6958      6956      6959      6960      6958      6956      6959      6961
      6958      6956      6959      6962      6959      6962      6965      6966
      6959      6962      6965      6967      6960      6959      6962      6963
      6960      6959      6962      6964      6960      6959      6962      6965
      6961      6959      6962      6963      6961      6959      6962      6964
      6961      6959      6962      6965      6962      6965      6967      6968
      6962      6965      6967      6969      6963      6962      6965      6966
      6963      6962      6965      6967      6964      6962      6965      6966
      6964      6962      6965      6967      6965      6967      6969      6970
      6965      6967      6969      6971      6965      6967      6969      6972
      6966      6965      6967      6968      6966      6965      6967      6969
      6967      6969      6972      6973      6967      6969      6972      6974
      6967      6969      6972      6975      6968      6967      6969      6970
      6968      6967      6969      6971      6968      6967      6969      6972
      6969      6972      6975      6976      6969      6972      6975      6977
      6969      6972      6975      6978      6970      6969      6972      6973
      6970      6969      6972      6974      6970      6969      6972      6975
      6971      6969      6972      6973      6971      6969      6972      6974
      6971      6969      6972      6975      6972      6975      6978      6979
      6972      6975      6978      6980      6972      6975      6978      6981
      6973      6972      6975      6976      6973      6972      6975      6977
      6973      6972      6975      6978      6974      6972      6975      6976
      6974      6972      6975      6977      6974      6972      6975      6978
      6975      6978      6981      6982      6975      6978      6981      6983
      6975      6978      6981      6984      6976      6975      6978      6979
      6976      6975      6978      6980      6976      6975      6978      6981
      6977      6975      6978      6979      6977      6975      6978      6980
      6977      6975      6978      6981      6978      6981      6984      6985
      6978      6981      6984      6986      6978      6981      6984      6987
      6979      6978      6981      6982      6979      6978      6981      6983
      6979      6978      6981      6984      6980      6978      6981      6982
      6980      6978      6981      6983      6980      6978      6981      6984
      6981      6984      6987      6988      6981      6984      6987      6989
      6981      6984      6987      6990      6982      6981      6984      6985
      6982      6981      6984      6986      6982      6981      6984      6987
      6983      6981      6984      6985      6983      6981      6984      6986
      6983      6981      6984      6987      6984      6987      6990      6991
      6984      6987      6990      6992      6984      6987      6990      6993
      6985      6984      6987      6988      6985      6984      6987      6989
      6985      6984      6987      6990      6986      6984      6987      6988
      6986      6984      6987      6989      6986      6984      6987      6990
      6988      6987      6990      6991      6988      6987      6990      6992
      6988      6987      6990      6993      6989      6987      6990      6991
      6989      6987      6990      6992      6989      6987      6990      6993
      6994      6997      7000      7001      6994      6997      7000      7002
      6994      6997      7000      7003      6995      6994      6997      6998
      6995      6994      6997      6999      6995      6994      6997      7000
      6996      6994      6997      6998      6996      6994      6997      6999
      6996      6994      6997      7000      6997      7000      7003      7004
      6997      7000      7003      7005      6997      7000      7003      7006
      6998      6997      7000      7001      6998      6997      7000      7002
      6998      6997      7000      7003      6999      6997      7000      7001
      6999      6997      7000      7002      6999      6997      7000      7003
      7000      7003      7006      7007      7000      7003      7006      7008
      7000      7003      7006      7009      7001      7000      7003      7004
      7001      7000      7003      7005      7001      7000      7003      7006
      7002      7000      7003      7004      7002      7000      7003      7005
      7002      7000      7003      7006      7003      7006      7009      7010
      7003      7006      7009      7011      7003      7006      7009      7012
      7004      7003      7006      7007      7004      7003      7006      7008
      7004      7003      7006      7009      7005      7003      7006      7007
      7005      7003      7006      7008      7005      7003      7006      7009
      7006      7009      7012      7013      7006      7009      7012      7014
      7006      7009      7012      7015      7007      7006      7009      7010
      7007      7006      7009      7011      7007      7006      7009      7012
      7008      7006      7009      7010      7008      7006      7009      7011
      7008      7006      7009      7012      7009      7012      7015      7016
      7009      7012      7015      7017      7009      7012      7015      7018
      7010      7009      7012      7013      7010      7009      7012      7014
      7010      7009      7012      7015      7011      7009      7012      7013
      7011      7009      7012      7014      7011      7009      7012      7015
      7012      7015      7018      7019      7012      7015      7018      7020
      7012      7015      7018      7021      7013      7012      7015      7016
      7013      7012      7015      7017      7013      7012      7015      7018
      7014      7012      7015      7016      7014      7012      7015      7017
      7014      7012      7015      7018      7015      7018      7021      7022
      7015      7018      7021      7023      7015      7018      7021      7024
      7016      7015      7018      7019      7016      7015      7018      7020
      7016      7015      7018      7021      7017      7015      7018      7019
      7017      7015      7018      7020      7017      7015      7018      7021
      7018      7021      7024      7025      7018      7021      7024      7026
      7018      7021      7024      7027      7019      7018      7021      7022
      7019      7018      7021      7023      7019      7018      7021      7024
      7020      7018      7021      7022      7020      7018      7021      7023
      7020      7018      7021      7024      7021      7024      7027      7028
      7021      7024      7027      7029      7021      7024      7027      7030
      7022      7021      7024      7025      7022      7021      7024      7026
      7022      7021      7024      7027      7023      7021      7024      7025
      7023      7021      7024      7026      7023      7021      7024      7027
      7024      7027      7030      7031      7024      7027      7030      7032
      7024      7027      7030      7033      7025      7024      7027      7028
      7025      7024      7027      7029      7025      7024      7027      7030
      7026      7024      7027      7028      7026      7024      7027      7029
      7026      7024      7027      7030      7027      7030      7033      7034
      7027      7030      7033      7035      7027      7030      7033      7036
      7028      7027      7030      7031      7028      7027      7030      7032
      7028      7027      7030      7033      7029      7027      7030      7031
      7029      7027      7030      7032      7029      7027      7030      7033
      7031      7030      7033      7034      7031      7030      7033      7035
      7031      7030      7033      7036      7032      7030      7033      7034
      7032      7030      7033      7035      7032      7030      7033      7036
      7037      7038      7053      7054      7037      7038      7053      7055
      7037      7038      7053      7059      7038      7037      7041      7042
      7038      7037      7041      7043      7038      7037      7041      7044
      7038      7037      7045      7046      7038      7037      7045      7047
      7038      7037      7045      7048      7038      7037      7049      7050
      7038      7037      7049      7051      7038      7037      7049      7052
      7038      7053      7059      7056      7039      7038      7037      7041
      7039      7038      7037      7045      7039      7038      7037      7049
      7039      7038      7053      7054      7039      7038      7053      7055
      7039      7038      7053      7059      7040      7038      7037      7041
      7040      7038      7037      7045      7040      7038      7037      7049
      7040      7038      7053      7054      7040      7038      7053      7055
      7040      7038      7053      7059      7041      7037      7038      7053
      7041      7037      7045      7046      7041      7037      7045      7047
      7041      7037      7045      7048      7041      7037      7049      7050
      7041      7037      7049      7051      7041      7037      7049      7052
      7042      7041      7037      7045      7042      7041      7037      7049
      7043      7041      7037      7045      7043      7041      7037      7049
      7044      7041      7037      7045      7044      7041      7037      7049
      7045      7037      7038      7053      7045      7037      7049      7050
      7045      7037      7049      7051      7045      7037      7049      7052
      7046      7045      7037      7049      7047      7045      7037      7049
      7048      7045      7037      7049      7049      7037      7038      7053
      7053      7059      7056      7057      7053      7059      7056      7058
      7053      7059      7056      7060      7054      7053      7059      7056
      7055      7053      7059      7056      7056      7060      7061      7062
      7056      7060      7061      7063      7056      7060      7061      7064
      7057      7056      7060      7061      7058      7056      7060      7061
      7059      7056      7060      7061      7060      7061      7064      7065
      7060      7061      7064      7066      7060      7061      7064      7072
      7061      7064      7066      7067      7061      7064      7072      7073
      7061      7064      7072      7074      7061      7064      7072      7075
      7062      7061      7064      7065      7062      7061      7064      7066
      7062      7061      7064      7072      7063      7061      7064      7065
      7063      7061      7064      7066      7063      7061      7064      7072
      7064      7066      7067      7068      7064      7066      7067      7069
      7064      7072      7075      7076      7065      7064      7066      7067
      7065      7064      7072      7073      7065      7064      7072      7074
      7065      7064      7072      7075      7066      7064      7072      7073
      7066      7064      7072      7074      7066      7064      7072      7075
      7066      7067      7069      7070      7066      7067      7069      7071
      7066      7067      7069      7081      7067      7066      7064      7072
      7067      7069      7081      7082      7067      7069      7081      7083
      7067      7069      7081      7084      7068      7067      7069      7070
      7068      7067      7069      7071      7068      7067      7069      7081
      7069      7081      7084      7085      7069      7081      7084      7086
      7069      7081      7084      7087      7070      7069      7081      7082
      7070      7069      7081      7083      7070      7069      7081      7084
      7071      7069      7081      7082      7071      7069      7081      7083
      7071      7069      7081      7084      7072      7075      7076      7077
      7072      7075      7076      7078      7073      7072      7075      7076
      7074      7072      7075      7076      7075      7076      7078      7079
      7075      7076      7078      7080      7075      7076      7078      7128
      7076      7078      7128      7129      7076      7078      7128      7130
      7076      7078      7128      7131      7077      7076      7078      7079
      7077      7076      7078      7080      7077      7076      7078      7128
      7078      7128      7131      7132      7078      7128      7131      7133
      7078      7128      7131      7134      7079      7078      7128      7129
      7079      7078      7128      7130      7079      7078      7128      7131
      7080      7078      7128      7129      7080      7078      7128      7130
      7080      7078      7128      7131      7081      7084      7087      7088
      7081      7084      7087      7089      7081      7084      7087      7090
      7082      7081      7084      7085      7082      7081      7084      7086
      7082      7081      7084      7087      7083      7081      7084      7085
      7083      7081      7084      7086      7083      7081      7084      7087
      7084      7087      7090      7091      7084      7087      7090      7092
      7084      7087      7090      7093      7085      7084      7087      7088
      7085      7084      7087      7089      7085      7084      7087      7090
      7086      7084      7087      7088      7086      7084      7087      7089
      7086      7084      7087      7090      7087      7090      7093      7094
      7087      7090      7093      7095      7087      7090      7093      7096
      7088      7087      7090      7091      7088      7087      7090      7092
      7088      7087      7090      7093      7089      7087      7090      7091
      7089      7087      7090      7092      7089      7087      7090      7093
      7090      7093      7096      7097      7090      7093      7096      7098
      7090      7093      7096      7099      7091      7090      7093      7094
      7091      7090      7093      7095      7091      7090      7093      7096
      7092      7090      7093      7094      7092      7090      7093      7095
      7092      7090      7093      7096      7093      7096      7099      7100
      7093      7096      7099      7101      7094      7093      7096      7097
      7094      7093      7096      7098      7094      7093      7096      7099
      7095      7093      7096      7097      7095      7093      7096      7098
      7095      7093      7096      7099      7096      7099      7101      7102
      7096      7099      7101      7103      7097      7096      7099      7100
      7097      7096      7099      7101      7098      7096      7099      7100
      7098      7096      7099      7101      7099      7101      7103      7104
      7099      7101      7103      7105      7099      7101      7103      7106
      7100      7099      7101      7102      7100      7099      7101      7103
      7101      7103      7106      7107      7101      7103      7106      7108
      7101      7103      7106      7109      7102      7101      7103      7104
      7102      7101      7103      7105      7102      7101      7103      7106
      7103      7106      7109      7110      7103      7106      7109      7111
      7103      7106      7109      7112      7104      7103      7106      7107
      7104      7103      7106      7108      7104      7103      7106      7109
      7105      7103      7106      7107      7105      7103      7106      7108
      7105      7103      7106      7109      7106      7109      7112      7113
      7106      7109      7112      7114      7106      7109      7112      7115
      7107      7106      7109      7110      7107      7106      7109      7111
      7107      7106      7109      7112      7108      7106      7109      7110
      7108      7106      7109      7111      7108      7106      7109      7112
      7109      7112      7115      7116      7109      7112      7115      7117
      7109      7112      7115      7118      7110      7109      7112      7113
      7110      7109      7112      7114      7110      7109      7112      7115
      7111      7109      7112      7113      7111      7109      7112      7114
      7111      7109      7112      7115      7112      7115      7118      7119
      7112      7115      7118      7120      7112      7115      7118      7121
      7113      7112      7115      7116      7113      7112      7115      7117
      7113      7112      7115      7118      7114      7112      7115      7116
      7114      7112      7115      7117      7114      7112      7115      7118
      7115      7118      7121      7122      7115      7118      7121      7123
      7115      7118      7121      7124      7116      7115      7118      7119
      7116      7115      7118      7120      7116      7115      7118      7121
      7117      7115      7118      7119      7117      7115      7118      7120
      7117      7115      7118      7121      7118      7121      7124      7125
      7118      7121      7124      7126      7118      7121      7124      7127
      7119      7118      7121      7122      7119      7118      7121      7123
      7119      7118      7121      7124      7120      7118      7121      7122
      7120      7118      7121      7123      7120      7118      7121      7124
      7122      7121      7124      7125      7122      7121      7124      7126
      7122      7121      7124      7127      7123      7121      7124      7125
      7123      7121      7124      7126      7123      7121      7124      7127
      7128      7131      7134      7135      7128      7131      7134      7136
      7128      7131      7134      7137      7129      7128      7131      7132
      7129      7128      7131      7133      7129      7128      7131      7134
      7130      7128      7131      7132      7130      7128      7131      7133
      7130      7128      7131      7134      7131      7134      7137      7138
      7131      7134      7137      7139      7131      7134      7137      7140
      7132      7131      7134      7135      7132      7131      7134      7136
      7132      7131      7134      7137      7133      7131      7134      7135
      7133      7131      7134      7136      7133      7131      7134      7137
      7134      7137      7140      7141      7134      7137      7140      7142
      7134      7137      7140      7143      7135      7134      7137      7138
      7135      7134      7137      7139      7135      7134      7137      7140
      7136      7134      7137      7138      7136      7134      7137      7139
      7136      7134      7137      7140      7137      7140      7143      7144
      7137      7140      7143      7145      7137      7140      7143      7146
      7138      7137      7140      7141      7138      7137      7140      7142
      7138      7137      7140      7143      7139      7137      7140      7141
      7139      7137      7140      7142      7139      7137      7140      7143
      7140      7143      7146      7147      7140      7143      7146      7148
      7140      7143      7146      7149      7141      7140      7143      7144
      7141      7140      7143      7145      7141      7140      7143      7146
      7142      7140      7143      7144      7142      7140      7143      7145
      7142      7140      7143      7146      7143      7146      7149      7150
      7143      7146      7149      7151      7143      7146      7149      7152
      7144      7143      7146      7147      7144      7143      7146      7148
      7144      7143      7146      7149      7145      7143      7146      7147
      7145      7143      7146      7148      7145      7143      7146      7149
      7146      7149      7152      7153      7146      7149      7152      7154
      7146      7149      7152      7155      7147      7146      7149      7150
      7147      7146      7149      7151      7147      7146      7149      7152
      7148      7146      7149      7150      7148      7146      7149      7151
      7148      7146      7149      7152      7149      7152      7155      7156
      7149      7152      7155      7157      7149      7152      7155      7158
      7150      7149      7152      7153      7150      7149      7152      7154
      7150      7149      7152      7155      7151      7149      7152      7153
      7151      7149      7152      7154      7151      7149      7152      7155
      7152      7155      7158      7159      7152      7155      7158      7160
      7152      7155      7158      7161      7153      7152      7155      7156
      7153      7152      7155      7157      7153      7152      7155      7158
      7154      7152      7155      7156      7154      7152      7155      7157
      7154      7152      7155      7158      7155      7158      7161      7162
      7155      7158      7161      7163      7155      7158      7161      7164
      7156      7155      7158      7159      7156      7155      7158      7160
      7156      7155      7158      7161      7157      7155      7158      7159
      7157      7155      7158      7160      7157      7155      7158      7161
      7158      7161      7164      7165      7158      7161      7164      7166
      7158      7161      7164      7167      7159      7158      7161      7162
      7159      7158      7161      7163      7159      7158      7161      7164
      7160      7158      7161      7162      7160      7158      7161      7163
      7160      7158      7161      7164      7161      7164      7167      7168
      7161      7164      7167      7169      7161      7164      7167      7170
      7162      7161      7164      7165      7162      7161      7164      7166
      7162      7161      7164      7167      7163      7161      7164      7165
      7163      7161      7164      7166      7163      7161      7164      7167
      7165      7164      7167      7168      7165      7164      7167      7169
      7165      7164      7167      7170      7166      7164      7167      7168
      7166      7164      7167      7169      7166      7164      7167      7170
      7171      7172      7187      7188      7171      7172      7187      7189
      7171      7172      7187      7193      7172      7171      7175      7176
      7172      7171      7175      7177      7172      7171      7175      7178
      7172      7171      7179      7180      7172      7171      7179      7181
      7172      7171      7179      7182      7172      7171      7183      7184
      7172      7171      7183      7185      7172      7171      7183      7186
      7172      7187      7193      7190      7173      7172      7171      7175
      7173      7172      7171      7179      7173      7172      7171      7183
      7173      7172      7187      7188      7173      7172      7187      7189
      7173      7172      7187      7193      7174      7172      7171      7175
      7174      7172      7171      7179      7174      7172      7171      7183
      7174      7172      7187      7188      7174      7172      7187      7189
      7174      7172      7187      7193      7175      7171      7172      7187
      7175      7171      7179      7180      7175      7171      7179      7181
      7175      7171      7179      7182      7175      7171      7183      7184
      7175      7171      7183      7185      7175      7171      7183      7186
      7176      7175      7171      7179      7176      7175      7171      7183
      7177      7175      7171      7179      7177      7175      7171      7183
      7178      7175      7171      7179      7178      7175      7171      7183
      7179      7171      7172      7187      7179      7171      7183      7184
      7179      7171      7183      7185      7179      7171      7183      7186
      7180      7179      7171      7183      7181      7179      7171      7183
      7182      7179      7171      7183      7183      7171      7172      7187
      7187      7193      7190      7191      7187      7193      7190      7192
      7187      7193      7190      7194      7188      7187      7193      7190
      7189      7187      7193      7190      7190      7194      7195      7196
      7190      7194      7195      7197      7190      7194      7195      7198
      7191      7190      7194      7195      7192      7190      7194      7195
      7193      7190      7194      7195      7194      7195      7198      7199
      7194      7195      7198      7200      7194      7195      7198      7206
      7195      7198      7200      7201      7195      7198      7206      7207
      7195      7198      7206      7208      7195      7198      7206      7209
      7196      7195      7198      7199      7196      7195      7198      7200
      7196      7195      7198      7206      7197      7195      7198      7199
      7197      7195      7198      7200      7197      7195      7198      7206
      7198      7200      7201      7202      7198      7200      7201      7203
      7198      7206      7209      7210      7199      7198      7200      7201
      7199      7198      7206      7207      7199      7198      7206      7208
      7199      7198      7206      7209      7200      7198      7206      7207
      7200      7198      7206      7208      7200      7198      7206      7209
      7200      7201      7203      7204      7200      7201      7203      7205
      7200      7201      7203      7215      7201      7200      7198      7206
      7201      7203      7215      7216      7201      7203      7215      7217
      7201      7203      7215      7218      7202      7201      7203      7204
      7202      7201      7203      7205      7202      7201      7203      7215
      7203      7215      7218      7219      7203      7215      7218      7220
      7203      7215      7218      7221      7204      7203      7215      7216
      7204      7203      7215      7217      7204      7203      7215      7218
      7205      7203      7215      7216      7205      7203      7215      7217
      7205      7203      7215      7218      7206      7209      7210      7211
      7206      7209      7210      7212      7207      7206      7209      7210
      7208      7206      7209      7210      7209      7210      7212      7213
      7209      7210      7212      7214      7209      7210      7212      7262
      7210      7212      7262      7263      7210      7212      7262      7264
      7210      7212      7262      7265      7211      7210      7212      7213
      7211      7210      7212      7214      7211      7210      7212      7262
      7212      7262      7265      7266      7212      7262      7265      7267
      7212      7262      7265      7268      7213      7212      7262      7263
      7213      7212      7262      7264      7213      7212      7262      7265
      7214      7212      7262      7263      7214      7212      7262      7264
      7214      7212      7262      7265      7215      7218      7221      7222
      7215      7218      7221      7223      7215      7218      7221      7224
      7216      7215      7218      7219      7216      7215      7218      7220
      7216      7215      7218      7221      7217      7215      7218      7219
      7217      7215      7218      7220      7217      7215      7218      7221
      7218      7221      7224      7225      7218      7221      7224      7226
      7218      7221      7224      7227      7219      7218      7221      7222
      7219      7218      7221      7223      7219      7218      7221      7224
      7220      7218      7221      7222      7220      7218      7221      7223
      7220      7218      7221      7224      7221      7224      7227      7228
      7221      7224      7227      7229      7221      7224      7227      7230
      7222      7221      7224      7225      7222      7221      7224      7226
      7222      7221      7224      7227      7223      7221      7224      7225
      7223      7221      7224      7226      7223      7221      7224      7227
      7224      7227      7230      7231      7224      7227      7230      7232
      7224      7227      7230      7233      7225      7224      7227      7228
      7225      7224      7227      7229      7225      7224      7227      7230
      7226      7224      7227      7228      7226      7224      7227      7229
      7226      7224      7227      7230      7227      7230      7233      7234
      7227      7230      7233      7235      7228      7227      7230      7231
      7228      7227      7230      7232      7228      7227      7230      7233
      7229      7227      7230      7231      7229      7227      7230      7232
      7229      7227      7230      7233      7230      7233      7235      7236
      7230      7233      7235      7237      7231      7230      7233      7234
      7231      7230      7233      7235      7232      7230      7233      7234
      7232      7230      7233      7235      7233      7235      7237      7238
      7233      7235      7237      7239      7233      7235      7237      7240
      7234      7233      7235      7236      7234      7233      7235      7237
      7235      7237      7240      7241      7235      7237      7240      7242
      7235      7237      7240      7243      7236      7235      7237      7238
      7236      7235      7237      7239      7236      7235      7237      7240
      7237      7240      7243      7244      7237      7240      7243      7245
      7237      7240      7243      7246      7238      7237      7240      7241
      7238      7237      7240      7242      7238      7237      7240      7243
      7239      7237      7240      7241      7239      7237      7240      7242
      7239      7237      7240      7243      7240      7243      7246      7247
      7240      7243      7246      7248      7240      7243      7246      7249
      7241      7240      7243      7244      7241      7240      7243      7245
      7241      7240      7243      7246      7242      7240      7243      7244
      7242      7240      7243      7245      7242      7240      7243      7246
      7243      7246      7249      7250      7243      7246      7249      7251
      7243      7246      7249      7252      7244      7243      7246      7247
      7244      7243      7246      7248      7244      7243      7246      7249
      7245      7243      7246      7247      7245      7243      7246      7248
      7245      7243      7246      7249      7246      7249      7252      7253
      7246      7249      7252      7254      7246      7249      7252      7255
      7247      7246      7249      7250      7247      7246      7249      7251
      7247      7246      7249      7252      7248      7246      7249      7250
      7248      7246      7249      7251      7248      7246      7249      7252
      7249      7252      7255      7256      7249      7252      7255      7257
      7249      7252      7255      7258      7250      7249      7252      7253
      7250      7249      7252      7254      7250      7249      7252      7255
      7251      7249      7252      7253      7251      7249      7252      7254
      7251      7249      7252      7255      7252      7255      7258      7259
      7252      7255      7258      7260      7252      7255      7258      7261
      7253      7252      7255      7256      7253      7252      7255      7257
      7253      7252      7255      7258      7254      7252      7255      7256
      7254      7252      7255      7257      7254      7252      7255      7258
      7256      7255      7258      7259      7256      7255      7258      7260
      7256      7255      7258      7261      7257      7255      7258      7259
      7257      7255      7258      7260      7257      7255      7258      7261
      7262      7265      7268      7269      7262      7265      7268      7270
      7262      7265      7268      7271      7263      7262      7265      7266
      7263      7262      7265      7267      7263      7262      7265      7268
      7264      7262      7265      7266      7264      7262      7265      7267
      7264      7262      7265      7268      7265      7268      7271      7272
      7265      7268      7271      7273      7265      7268      7271      7274
      7266      7265      7268      7269      7266      7265      7268      7270
      7266      7265      7268      7271      7267      7265      7268      7269
      7267      7265      7268      7270      7267      7265      7268      7271
      7268      7271      7274      7275      7268      7271      7274      7276
      7268      7271      7274      7277      7269      7268      7271      7272
      7269      7268      7271      7273      7269      7268      7271      7274
      7270      7268      7271      7272      7270      7268      7271      7273
      7270      7268      7271      7274      7271      7274      7277      7278
      7271      7274      7277      7279      7271      7274      7277      7280
      7272      7271      7274      7275      7272      7271      7274      7276
      7272      7271      7274      7277      7273      7271      7274      7275
      7273      7271      7274      7276      7273      7271      7274      7277
      7274      7277      7280      7281      7274      7277      7280      7282
      7274      7277      7280      7283      7275      7274      7277      7278
      7275      7274      7277      7279      7275      7274      7277      7280
      7276      7274      7277      7278      7276      7274      7277      7279
      7276      7274      7277      7280      7277      7280      7283      7284
      7277      7280      7283      7285      7277      7280      7283      7286
      7278      7277      7280      7281      7278      7277      7280      7282
      7278      7277      7280      7283      7279      7277      7280      7281
      7279      7277      7280      7282      7279      7277      7280      7283
      7280      7283      7286      7287      7280      7283      7286      7288
      7280      7283      7286      7289      7281      7280      7283      7284
      7281      7280      7283      7285      7281      7280      7283      7286
      7282      7280      7283      7284      7282      7280      7283      7285
      7282      7280      7283      7286      7283      7286      7289      7290
      7283      7286      7289      7291      7283      7286      7289      7292
      7284      7283      7286      7287      7284      7283      7286      7288
      7284      7283      7286      7289      7285      7283      7286      7287
      7285      7283      7286      7288      7285      7283      7286      7289
      7286      7289      7292      7293      7286      7289      7292      7294
      7286      7289      7292      7295      7287      7286      7289      7290
      7287      7286      7289      7291      7287      7286      7289      7292
      7288      7286      7289      7290      7288      7286      7289      7291
      7288      7286      7289      7292      7289      7292      7295      7296
      7289      7292      7295      7297      7289      7292      7295      7298
      7290      7289      7292      7293      7290      7289      7292      7294
      7290      7289      7292      7295      7291      7289      7292      7293
      7291      7289      7292      7294      7291      7289      7292      7295
      7292      7295      7298      7299      7292      7295      7298      7300
      7292      7295      7298      7301      7293      7292      7295      7296
      7293      7292      7295      7297      7293      7292      7295      7298
      7294      7292      7295      7296      7294      7292      7295      7297
      7294      7292      7295      7298      7295      7298      7301      7302
      7295      7298      7301      7303      7295      7298      7301      7304
      7296      7295      7298      7299      7296      7295      7298      7300
      7296      7295      7298      7301      7297      7295      7298      7299
      7297      7295      7298      7300      7297      7295      7298      7301
      7299      7298      7301      7302      7299      7298      7301      7303
      7299      7298      7301      7304      7300      7298      7301      7302
      7300      7298      7301      7303      7300      7298      7301      7304
      7305      7306      7321      7322      7305      7306      7321      7323
      7305      7306      7321      7327      7306      7305      7309      7310
      7306      7305      7309      7311      7306      7305      7309      7312
      7306      7305      7313      7314      7306      7305      7313      7315
      7306      7305      7313      7316      7306      7305      7317      7318
      7306      7305      7317      7319      7306      7305      7317      7320
      7306      7321      7327      7324      7307      7306      7305      7309
      7307      7306      7305      7313      7307      7306      7305      7317
      7307      7306      7321      7322      7307      7306      7321      7323
      7307      7306      7321      7327      7308      7306      7305      7309
      7308      7306      7305      7313      7308      7306      7305      7317
      7308      7306      7321      7322      7308      7306      7321      7323
      7308      7306      7321      7327      7309      7305      7306      7321
      7309      7305      7313      7314      7309      7305      7313      7315
      7309      7305      7313      7316      7309      7305      7317      7318
      7309      7305      7317      7319      7309      7305      7317      7320
      7310      7309      7305      7313      7310      7309      7305      7317
      7311      7309      7305      7313      7311      7309      7305      7317
      7312      7309      7305      7313      7312      7309      7305      7317
      7313      7305      7306      7321      7313      7305      7317      7318
      7313      7305      7317      7319      7313      7305      7317      7320
      7314      7313      7305      7317      7315      7313      7305      7317
      7316      7313      7305      7317      7317      7305      7306      7321
      7321      7327      7324      7325      7321      7327      7324      7326
      7321      7327      7324      7328      7322      7321      7327      7324
      7323      7321      7327      7324      7324      7328      7329      7330
      7324      7328      7329      7331      7324      7328      7329      7332
      7325      7324      7328      7329      7326      7324      7328      7329
      7327      7324      7328      7329      7328      7329      7332      7333
      7328      7329      7332      7334      7328      7329      7332      7340
      7329      7332      7334      7335      7329      7332      7340      7341
      7329      7332      7340      7342      7329      7332      7340      7343
      7330      7329      7332      7333      7330      7329      7332      7334
      7330      7329      7332      7340      7331      7329      7332      7333
      7331      7329      7332      7334      7331      7329      7332      7340
      7332      7334      7335      7336      7332      7334      7335      7337
      7332      7340      7343      7344      7333      7332      7334      7335
      7333      7332      7340      7341      7333      7332      7340      7342
      7333      7332      7340      7343      7334      7332      7340      7341
      7334      7332      7340      7342      7334      7332      7340      7343
      7334      7335      7337      7338      7334      7335      7337      7339
      7334      7335      7337      7349      7335      7334      7332      7340
      7335      7337      7349      7350      7335      7337      7349      7351
      7335      7337      7349      7352      7336      7335      7337      7338
      7336      7335      7337      7339      7336      7335      7337      7349
      7337      7349      7352      7353      7337      7349      7352      7354
      7337      7349      7352      7355      7338      7337      7349      7350
      7338      7337      7349      7351      7338      7337      7349      7352
      7339      7337      7349      7350      7339      7337      7349      7351
      7339      7337      7349      7352      7340      7343      7344      7345
      7340      7343      7344      7346      7341      7340      7343      7344
      7342      7340      7343      7344      7343      7344      7346      7347
      7343      7344      7346      7348      7343      7344      7346      7396
      7344      7346      7396      7397      7344      7346      7396      7398
      7344      7346      7396      7399      7345      7344      7346      7347
      7345      7344      7346      7348      7345      7344      7346      7396
      7346      7396      7399      7400      7346      7396      7399      7401
      7346      7396      7399      7402      7347      7346      7396      7397
      7347      7346      7396      7398      7347      7346      7396      7399
      7348      7346      7396      7397      7348      7346      7396      7398
      7348      7346      7396      7399      7349      7352      7355      7356
      7349      7352      7355      7357      7349      7352      7355      7358
      7350      7349      7352      7353      7350      7349      7352      7354
      7350      7349      7352      7355      7351      7349      7352      7353
      7351      7349      7352      7354      7351      7349      7352      7355
      7352      7355      7358      7359      7352      7355      7358      7360
      7352      7355      7358      7361      7353      7352      7355      7356
      7353      7352      7355      7357      7353      7352      7355      7358
      7354      7352      7355      7356      7354      7352      7355      7357
      7354      7352      7355      7358      7355      7358      7361      7362
      7355      7358      7361      7363      7355      7358      7361      7364
      7356      7355      7358      7359      7356      7355      7358      7360
      7356      7355      7358      7361      7357      7355      7358      7359
      7357      7355      7358      7360      7357      7355      7358      7361
      7358      7361      7364      7365      7358      7361      7364      7366
      7358      7361      7364      7367      7359      7358      7361      7362
      7359      7358      7361      7363      7359      7358      7361      7364
      7360      7358      7361      7362      7360      7358      7361      7363
      7360      7358      7361      7364      7361      7364      7367      7368
      7361      7364      7367      7369      7362      7361      7364      7365
      7362      7361      7364      7366      7362      7361      7364      7367
      7363      7361      7364      7365      7363      7361      7364      7366
      7363      7361      7364      7367      7364      7367      7369      7370
      7364      7367      7369      7371      7365      7364      7367      7368
      7365      7364      7367      7369      7366      7364      7367      7368
      7366      7364      7367      7369      7367      7369      7371      7372
      7367      7369      7371      7373      7367      7369      7371      7374
      7368      7367      7369      7370      7368      7367      7369      7371
      7369      7371      7374      7375      7369      7371      7374      7376
      7369      7371      7374      7377      7370      7369      7371      7372
      7370      7369      7371      7373      7370      7369      7371      7374
      7371      7374      7377      7378      7371      7374      7377      7379
      7371      7374      7377      7380      7372      7371      7374      7375
      7372      7371      7374      7376      7372      7371      7374      7377
      7373      7371      7374      7375      7373      7371      7374      7376
      7373      7371      7374      7377      7374      7377      7380      7381
      7374      7377      7380      7382      7374      7377      7380      7383
      7375      7374      7377      7378      7375      7374      7377      7379
      7375      7374      7377      7380      7376      7374      7377      7378
      7376      7374      7377      7379      7376      7374      7377      7380
      7377      7380      7383      7384      7377      7380      7383      7385
      7377      7380      7383      7386      7378      7377      7380      7381
      7378      7377      7380      7382      7378      7377      7380      7383
      7379      7377      7380      7381      7379      7377      7380      7382
      7379      7377      7380      7383      7380      7383      7386      7387
      7380      7383      7386      7388      7380      7383      7386      7389
      7381      7380      7383      7384      7381      7380      7383      7385
      7381      7380      7383      7386      7382      7380      7383      7384
      7382      7380      7383      7385      7382      7380      7383      7386
      7383      7386      7389      7390      7383      7386      7389      7391
      7383      7386      7389      7392      7384      7383      7386      7387
      7384      7383      7386      7388      7384      7383      7386      7389
      7385      7383      7386      7387      7385      7383      7386      7388
      7385      7383      7386      7389      7386      7389      7392      7393
      7386      7389      7392      7394      7386      7389      7392      7395
      7387      7386      7389      7390      7387      7386      7389      7391
      7387      7386      7389      7392      7388      7386      7389      7390
      7388      7386      7389      7391      7388      7386      7389      7392
      7390      7389      7392      7393      7390      7389      7392      7394
      7390      7389      7392      7395      7391      7389      7392      7393
      7391      7389      7392      7394      7391      7389      7392      7395
      7396      7399      7402      7403      7396      7399      7402      7404
      7396      7399      7402      7405      7397      7396      7399      7400
      7397      7396      7399      7401      7397      7396      7399      7402
      7398      7396      7399      7400      7398      7396      7399      7401
      7398      7396      7399      7402      7399      7402      7405      7406
      7399      7402      7405      7407      7399      7402      7405      7408
      7400      7399      7402      7403      7400      7399      7402      7404
      7400      7399      7402      7405      7401      7399      7402      7403
      7401      7399      7402      7404      7401      7399      7402      7405
      7402      7405      7408      7409      7402      7405      7408      7410
      7402      7405      7408      7411      7403      7402      7405      7406
      7403      7402      7405      7407      7403      7402      7405      7408
      7404      7402      7405      7406      7404      7402      7405      7407
      7404      7402      7405      7408      7405      7408      7411      7412
      7405      7408      7411      7413      7405      7408      7411      7414
      7406      7405      7408      7409      7406      7405      7408      7410
      7406      7405      7408      7411      7407      7405      7408      7409
      7407      7405      7408      7410      7407      7405      7408      7411
      7408      7411      7414      7415      7408      7411      7414      7416
      7408      7411      7414      7417      7409      7408      7411      7412
      7409      7408      7411      7413      7409      7408      7411      7414
      7410      7408      7411      7412      7410      7408      7411      7413
      7410      7408      7411      7414      7411      7414      7417      7418
      7411      7414      7417      7419      7411      7414      7417      7420
      7412      7411      7414      7415      7412      7411      7414      7416
      7412      7411      7414      7417      7413      7411      7414      7415
      7413      7411      7414      7416      7413      7411      7414      7417
      7414      7417      7420      7421      7414      7417      7420      7422
      7414      7417      7420      7423      7415      7414      7417      7418
      7415      7414      7417      7419      7415      7414      7417      7420
      7416      7414      7417      7418      7416      7414      7417      7419
      7416      7414      7417      7420      7417      7420      7423      7424
      7417      7420      7423      7425      7417      7420      7423      7426
      7418      7417      7420      7421      7418      7417      7420      7422
      7418      7417      7420      7423      7419      7417      7420      7421
      7419      7417      7420      7422      7419      7417      7420      7423
      7420      7423      7426      7427      7420      7423      7426      7428
      7420      7423      7426      7429      7421      7420      7423      7424
      7421      7420      7423      7425      7421      7420      7423      7426
      7422      7420      7423      7424      7422      7420      7423      7425
      7422      7420      7423      7426      7423      7426      7429      7430
      7423      7426      7429      7431      7423      7426      7429      7432
      7424      7423      7426      7427      7424      7423      7426      7428
      7424      7423      7426      7429      7425      7423      7426      7427
      7425      7423      7426      7428      7425      7423      7426      7429
      7426      7429      7432      7433      7426      7429      7432      7434
      7426      7429      7432      7435      7427      7426      7429      7430
      7427      7426      7429      7431      7427      7426      7429      7432
      7428      7426      7429      7430      7428      7426      7429      7431
      7428      7426      7429      7432      7429      7432      7435      7436
      7429      7432      7435      7437      7429      7432      7435      7438
      7430      7429      7432      7433      7430      7429      7432      7434
      7430      7429      7432      7435      7431      7429      7432      7433
      7431      7429      7432      7434      7431      7429      7432      7435
      7433      7432      7435      7436      7433      7432      7435      7437
      7433      7432      7435      7438      7434      7432      7435      7436
      7434      7432      7435      7437      7434      7432      7435      7438
      7439      7440      7455      7456      7439      7440      7455      7457
      7439      7440      7455      7461      7440      7439      7443      7444
      7440      7439      7443      7445      7440      7439      7443      7446
      7440      7439      7447      7448      7440      7439      7447      7449
      7440      7439      7447      7450      7440      7439      7451      7452
      7440      7439      7451      7453      7440      7439      7451      7454
      7440      7455      7461      7458      7441      7440      7439      7443
      7441      7440      7439      7447      7441      7440      7439      7451
      7441      7440      7455      7456      7441      7440      7455      7457
      7441      7440      7455      7461      7442      7440      7439      7443
      7442      7440      7439      7447      7442      7440      7439      7451
      7442      7440      7455      7456      7442      7440      7455      7457
      7442      7440      7455      7461      7443      7439      7440      7455
      7443      7439      7447      7448      7443      7439      7447      7449
      7443      7439      7447      7450      7443      7439      7451      7452
      7443      7439      7451      7453      7443      7439      7451      7454
      7444      7443      7439      7447      7444      7443      7439      7451
      7445      7443      7439      7447      7445      7443      7439      7451
      7446      7443      7439      7447      7446      7443      7439      7451
      7447      7439      7440      7455      7447      7439      7451      7452
      7447      7439      7451      7453      7447      7439      7451      7454
      7448      7447      7439      7451      7449      7447      7439      7451
      7450      7447      7439      7451      7451      7439      7440      7455
      7455      7461      7458      7459      7455      7461      7458      7460
      7455      7461      7458      7462      7456      7455      7461      7458
      7457      7455      7461      7458      7458      7462      7463      7464
      7458      7462      7463      7465      7458      7462      7463      7466
      7459      7458      7462      7463      7460      7458      7462      7463
      7461      7458      7462      7463      7462      7463      7466      7467
      7462      7463      7466      7468      7462      7463      7466      7474
      7463      7466      7468      7469      7463      7466      7474      7475
      7463      7466      7474      7476      7463      7466      7474      7477
      7464      7463      7466      7467      7464      7463      7466      7468
      7464      7463      7466      7474      7465      7463      7466      7467
      7465      7463      7466      7468      7465      7463      7466      7474
      7466      7468      7469      7470      7466      7468      7469      7471
      7466      7474      7477      7478      7467      7466      7468      7469
      7467      7466      7474      7475      7467      7466      7474      7476
      7467      7466      7474      7477      7468      7466      7474      7475
      7468      7466      7474      7476      7468      7466      7474      7477
      7468      7469      7471      7472      7468      7469      7471      7473
      7468      7469      7471      7483      7469      7468      7466      7474
      7469      7471      7483      7484      7469      7471      7483      7485
      7469      7471      7483      7486      7470      7469      7471      7472
      7470      7469      7471      7473      7470      7469      7471      7483
      7471      7483      7486      7487      7471      7483      7486      7488
      7471      7483      7486      7489      7472      7471      7483      7484
      7472      7471      7483      7485      7472      7471      7483      7486
      7473      7471      7483      7484      7473      7471      7483      7485
      7473      7471      7483      7486      7474      7477      7478      7479
      7474      7477      7478      7480      7475      7474      7477      7478
      7476      7474      7477      7478      7477      7478      7480      7481
      7477      7478      7480      7482      7477      7478      7480      7530
      7478      7480      7530      7531      7478      7480      7530      7532
      7478      7480      7530      7533      7479      7478      7480      7481
      7479      7478      7480      7482      7479      7478      7480      7530
      7480      7530      7533      7534      7480      7530      7533      7535
      7480      7530      7533      7536      7481      7480      7530      7531
      7481      7480      7530      7532      7481      7480      7530      7533
      7482      7480      7530      7531      7482      7480      7530      7532
      7482      7480      7530      7533      7483      7486      7489      7490
      7483      7486      7489      7491      7483      7486      7489      7492
      7484      7483      7486      7487      7484      7483      7486      7488
      7484      7483      7486      7489      7485      7483      7486      7487
      7485      7483      7486      7488      7485      7483      7486      7489
      7486      7489      7492      7493      7486      7489      7492      7494
      7486      7489      7492      7495      7487      7486      7489      7490
      7487      7486      7489      7491      7487      7486      7489      7492
      7488      7486      7489      7490      7488      7486      7489      7491
      7488      7486      7489      7492      7489      7492      7495      7496
      7489      7492      7495      7497      7489      7492      7495      7498
      7490      7489      7492      7493      7490      7489      7492      7494
      7490      7489      7492      7495      7491      7489      7492      7493
      7491      7489      7492      7494      7491      7489      7492      7495
      7492      7495      7498      7499      7492      7495      7498      7500
      7492      7495      7498      7501      7493      7492      7495      7496
      7493      7492      7495      7497      7493      7492      7495      7498
      7494      7492      7495      7496      7494      7492      7495      7497
      7494      7492      7495      7498      7495      7498      7501      7502
      7495      7498      7501      7503      7496      7495      7498      7499
      7496      7495      7498      7500      7496      7495      7498      7501
      7497      7495      7498      7499      7497      7495      7498      7500
      7497      7495      7498      7501      7498      7501      7503      7504
      7498      7501      7503      7505      7499      7498      7501      7502
      7499      7498      7501      7503      7500      7498      7501      7502
      7500      7498      7501      7503      7501      7503      7505      7506
      7501      7503      7505      7507      7501      7503      7505      7508
      7502      7501      7503      7504      7502      7501      7503      7505
      7503      7505      7508      7509      7503      7505      7508      7510
      7503      7505      7508      7511      7504      7503      7505      7506
      7504      7503      7505      7507      7504      7503      7505      7508
      7505      7508      7511      7512      7505      7508      7511      7513
      7505      7508      7511      7514      7506      7505      7508      7509
      7506      7505      7508      7510      7506      7505      7508      7511
      7507      7505      7508      7509      7507      7505      7508      7510
      7507      7505      7508      7511      7508      7511      7514      7515
      7508      7511      7514      7516      7508      7511      7514      7517
      7509      7508      7511      7512      7509      7508      7511      7513
      7509      7508      7511      7514      7510      7508      7511      7512
      7510      7508      7511      7513      7510      7508      7511      7514
      7511      7514      7517      7518      7511      7514      7517      7519
      7511      7514      7517      7520      7512      7511      7514      7515
      7512      7511      7514      7516      7512      7511      7514      7517
      7513      7511      7514      7515      7513      7511      7514      7516
      7513      7511      7514      7517      7514      7517      7520      7521
      7514      7517      7520      7522      7514      7517      7520      7523
      7515      7514      7517      7518      7515      7514      7517      7519
      7515      7514      7517      7520      7516      7514      7517      7518
      7516      7514      7517      7519      7516      7514      7517      7520
      7517      7520      7523      7524      7517      7520      7523      7525
      7517      7520      7523      7526      7518      7517      7520      7521
      7518      7517      7520      7522      7518      7517      7520      7523
      7519      7517      7520      7521      7519      7517      7520      7522
      7519      7517      7520      7523      7520      7523      7526      7527
      7520      7523      7526      7528      7520      7523      7526      7529
      7521      7520      7523      7524      7521      7520      7523      7525
      7521      7520      7523      7526      7522      7520      7523      7524
      7522      7520      7523      7525      7522      7520      7523      7526
      7524      7523      7526      7527      7524      7523      7526      7528
      7524      7523      7526      7529      7525      7523      7526      7527
      7525      7523      7526      7528      7525      7523      7526      7529
      7530      7533      7536      7537      7530      7533      7536      7538
      7530      7533      7536      7539      7531      7530      7533      7534
      7531      7530      7533      7535      7531      7530      7533      7536
      7532      7530      7533      7534      7532      7530      7533      7535
      7532      7530      7533      7536      7533      7536      7539      7540
      7533      7536      7539      7541      7533      7536      7539      7542
      7534      7533      7536      7537      7534      7533      7536      7538
      7534      7533      7536      7539      7535      7533      7536      7537
      7535      7533      7536      7538      7535      7533      7536      7539
      7536      7539      7542      7543      7536      7539      7542      7544
      7536      7539      7542      7545      7537      7536      7539      7540
      7537      7536      7539      7541      7537      7536      7539      7542
      7538      7536      7539      7540      7538      7536      7539      7541
      7538      7536      7539      7542      7539      7542      7545      7546
      7539      7542      7545      7547      7539      7542      7545      7548
      7540      7539      7542      7543      7540      7539      7542      7544
      7540      7539      7542      7545      7541      7539      7542      7543
      7541      7539      7542      7544      7541      7539      7542      7545
      7542      7545      7548      7549      7542      7545      7548      7550
      7542      7545      7548      7551      7543      7542      7545      7546
      7543      7542      7545      7547      7543      7542      7545      7548
      7544      7542      7545      7546      7544      7542      7545      7547
      7544      7542      7545      7548      7545      7548      7551      7552
      7545      7548      7551      7553      7545      7548      7551      7554
      7546      7545      7548      7549      7546      7545      7548      7550
      7546      7545      7548      7551      7547      7545      7548      7549
      7547      7545      7548      7550      7547      7545      7548      7551
      7548      7551      7554      7555      7548      7551      7554      7556
      7548      7551      7554      7557      7549      7548      7551      7552
      7549      7548      7551      7553      7549      7548      7551      7554
      7550      7548      7551      7552      7550      7548      7551      7553
      7550      7548      7551      7554      7551      7554      7557      7558
      7551      7554      7557      7559      7551      7554      7557      7560
      7552      7551      7554      7555      7552      7551      7554      7556
      7552      7551      7554      7557      7553      7551      7554      7555
      7553      7551      7554      7556      7553      7551      7554      7557
      7554      7557      7560      7561      7554      7557      7560      7562
      7554      7557      7560      7563      7555      7554      7557      7558
      7555      7554      7557      7559      7555      7554      7557      7560
      7556      7554      7557      7558      7556      7554      7557      7559
      7556      7554      7557      7560      7557      7560      7563      7564
      7557      7560      7563      7565      7557      7560      7563      7566
      7558      7557      7560      7561      7558      7557      7560      7562
      7558      7557      7560      7563      7559      7557      7560      7561
      7559      7557      7560      7562      7559      7557      7560      7563
      7560      7563      7566      7567      7560      7563      7566      7568
      7560      7563      7566      7569      7561      7560      7563      7564
      7561      7560      7563      7565      7561      7560      7563      7566
      7562      7560      7563      7564      7562      7560      7563      7565
      7562      7560      7563      7566      7563      7566      7569      7570
      7563      7566      7569      7571      7563      7566      7569      7572
      7564      7563      7566      7567      7564      7563      7566      7568
      7564      7563      7566      7569      7565      7563      7566      7567
      7565      7563      7566      7568      7565      7563      7566      7569
      7567      7566      7569      7570      7567      7566      7569      7571
      7567      7566      7569      7572      7568      7566      7569      7570
      7568      7566      7569      7571      7568      7566      7569      7572
      7573      7574      7589      7590      7573      7574      7589      7591
      7573      7574      7589      7595      7574      7573      7577      7578
      7574      7573      7577      7579      7574      7573      7577      7580
      7574      7573      7581      7582      7574      7573      7581      7583
      7574      7573      7581      7584      7574      7573      7585      7586
      7574      7573      7585      7587      7574      7573      7585      7588
      7574      7589      7595      7592      7575      7574      7573      7577
      7575      7574      7573      7581      7575      7574      7573      7585
      7575      7574      7589      7590      7575      7574      7589      7591
      7575      7574      7589      7595      7576      7574      7573      7577
      7576      7574      7573      7581      7576      7574      7573      7585
      7576      7574      7589      7590      7576      7574      7589      7591
      7576      7574      7589      7595      7577      7573      7574      7589
      7577      7573      7581      7582      7577      7573      7581      7583
      7577      7573      7581      7584      7577      7573      7585      7586
      7577      7573      7585      7587      7577      7573      7585      7588
      7578      7577      7573      7581      7578      7577      7573      7585
      7579      7577      7573      7581      7579      7577      7573      7585
      7580      7577      7573      7581      7580      7577      7573      7585
      7581      7573      7574      7589      7581      7573      7585      7586
      7581      7573      7585      7587      7581      7573      7585      7588
      7582      7581      7573      7585      7583      7581      7573      7585
      7584      7581      7573      7585      7585      7573      7574      7589
      7589      7595      7592      7593      7589      7595      7592      7594
      7589      7595      7592      7596      7590      7589      7595      7592
      7591      7589      7595      7592      7592      7596      7597      7598
      7592      7596      7597      7599      7592      7596      7597      7600
      7593      7592      7596      7597      7594      7592      7596      7597
      7595      7592      7596      7597      7596      7597      7600      7601
      7596      7597      7600      7602      7596      7597      7600      7608
      7597      7600      7602      7603      7597      7600      7608      7609
      7597      7600      7608      7610      7597      7600      7608      7611
      7598      7597      7600      7601      7598      7597      7600      7602
      7598      7597      7600      7608      7599      7597      7600      7601
      7599      7597      7600      7602      7599      7597      7600      7608
      7600      7602      7603      7604      7600      7602      7603      7605
      7600      7608      7611      7612      7601      7600      7602      7603
      7601      7600      7608      7609      7601      7600      7608      7610
      7601      7600      7608      7611      7602      7600      7608      7609
      7602      7600      7608      7610      7602      7600      7608      7611
      7602      7603      7605      7606      7602      7603      7605      7607
      7602      7603      7605      7617      7603      7602      7600      7608
      7603      7605      7617      7618      7603      7605      7617      7619
      7603      7605      7617      7620      7604      7603      7605      7606
      7604      7603      7605      7607      7604      7603      7605      7617
      7605      7617      7620      7621      7605      7617      7620      7622
      7605      7617      7620      7623      7606      7605      7617      7618
      7606      7605      7617      7619      7606      7605      7617      7620
      7607      7605      7617      7618      7607      7605      7617      7619
      7607      7605      7617      7620      7608      7611      7612      7613
      7608      7611      7612      7614      7609      7608      7611      7612
      7610      7608      7611      7612      7611      7612      7614      7615
      7611      7612      7614      7616      7611      7612      7614      7664
      7612      7614      7664      7665      7612      7614      7664      7666
      7612      7614      7664      7667      7613      7612      7614      7615
      7613      7612      7614      7616      7613      7612      7614      7664
      7614      7664      7667      7668      7614      7664      7667      7669
      7614      7664      7667      7670      7615      7614      7664      7665
      7615      7614      7664      7666      7615      7614      7664      7667
      7616      7614      7664      7665      7616      7614      7664      7666
      7616      7614      7664      7667      7617      7620      7623      7624
      7617      7620      7623      7625      7617      7620      7623      7626
      7618      7617      7620      7621      7618      7617      7620      7622
      7618      7617      7620      7623      7619      7617      7620      7621
      7619      7617      7620      7622      7619      7617      7620      7623
      7620      7623      7626      7627      7620      7623      7626      7628
      7620      7623      7626      7629      7621      7620      7623      7624
      7621      7620      7623      7625      7621      7620      7623      7626
      7622      7620      7623      7624      7622      7620      7623      7625
      7622      7620      7623      7626      7623      7626      7629      7630
      7623      7626      7629      7631      7623      7626      7629      7632
      7624      7623      7626      7627      7624      7623      7626      7628
      7624      7623      7626      7629      7625      7623      7626      7627
      7625      7623      7626      7628      7625      7623      7626      7629
      7626      7629      7632      7633      7626      7629      7632      7634
      7626      7629      7632      7635      7627      7626      7629      7630
      7627      7626      7629      7631      7627      7626      7629      7632
      7628      7626      7629      7630      7628      7626      7629      7631
      7628      7626      7629      7632      7629      7632      7635      7636
      7629      7632      7635      7637      7630      7629      7632      7633
      7630      7629      7632      7634      7630      7629      7632      7635
      7631      7629      7632      7633      7631      7629      7632      7634
      7631      7629      7632      7635      7632      7635      7637      7638
      7632      7635      7637      7639      7633      7632      7635      7636
      7633      7632      7635      7637      7634      7632      7635      7636
      7634      7632      7635      7637      7635      7637      7639      7640
      7635      7637      7639      7641      7635      7637      7639      7642
      7636      7635      7637      7638      7636      7635      7637      7639
      7637      7639      7642      7643      7637      7639      7642      7644
      7637      7639      7642      7645      7638      7637      7639      7640
      7638      7637      7639      7641      7638      7637      7639      7642
      7639      7642      7645      7646      7639      7642      7645      7647
      7639      7642      7645      7648      7640      7639      7642      7643
      7640      7639      7642      7644      7640      7639      7642      7645
      7641      7639      7642      7643      7641      7639      7642      7644
      7641      7639      7642      7645      7642      7645      7648      7649
      7642      7645      7648      7650      7642      7645      7648      7651
      7643      7642      7645      7646      7643      7642      7645      7647
      7643      7642      7645      7648      7644      7642      7645      7646
      7644      7642      7645      7647      7644      7642      7645      7648
      7645      7648      7651      7652      7645      7648      7651      7653
      7645      7648      7651      7654      7646      7645      7648      7649
      7646      7645      7648      7650      7646      7645      7648      7651
      7647      7645      7648      7649      7647      7645      7648      7650
      7647      7645      7648      7651      7648      7651      7654      7655
      7648      7651      7654      7656      7648      7651      7654      7657
      7649      7648      7651      7652      7649      7648      7651      7653
      7649      7648      7651      7654      7650      7648      7651      7652
      7650      7648      7651      7653      7650      7648      7651      7654
      7651      7654      7657      7658      7651      7654      7657      7659
      7651      7654      7657      7660      7652      7651      7654      7655
      7652      7651      7654      7656      7652      7651      7654      7657
      7653      7651      7654      7655      7653      7651      7654      7656
      7653      7651      7654      7657      7654      7657      7660      7661
      7654      7657      7660      7662      7654      7657      7660      7663
      7655      7654      7657      7658      7655      7654      7657      7659
      7655      7654      7657      7660      7656      7654      7657      7658
      7656      7654      7657      7659      7656      7654      7657      7660
      7658      7657      7660      7661      7658      7657      7660      7662
      7658      7657      7660      7663      7659      7657      7660      7661
      7659      7657      7660      7662      7659      7657      7660      7663
      7664      7667      7670      7671      7664      7667      7670      7672
      7664      7667      7670      7673      7665      7664      7667      7668
      7665      7664      7667      7669      7665      7664      7667      7670
      7666      7664      7667      7668      7666      7664      7667      7669
      7666      7664      7667      7670      7667      7670      7673      7674
      7667      7670      7673      7675      7667      7670      7673      7676
      7668      7667      7670      7671      7668      7667      7670      7672
      7668      7667      7670      7673      7669      7667      7670      7671
      7669      7667      7670      7672      7669      7667      7670      7673
      7670      7673      7676      7677      7670      7673      7676      7678
      7670      7673      7676      7679      7671      7670      7673      7674
      7671      7670      7673      7675      7671      7670      7673      7676
      7672      7670      7673      7674      7672      7670      7673      7675
      7672      7670      7673      7676      7673      7676      7679      7680
      7673      7676      7679      7681      7673      7676      7679      7682
      7674      7673      7676      7677      7674      7673      7676      7678
      7674      7673      7676      7679      7675      7673      7676      7677
      7675      7673      7676      7678      7675      7673      7676      7679
      7676      7679      7682      7683      7676      7679      7682      7684
      7676      7679      7682      7685      7677      7676      7679      7680
      7677      7676      7679      7681      7677      7676      7679      7682
      7678      7676      7679      7680      7678      7676      7679      7681
      7678      7676      7679      7682      7679      7682      7685      7686
      7679      7682      7685      7687      7679      7682      7685      7688
      7680      7679      7682      7683      7680      7679      7682      7684
      7680      7679      7682      7685      7681      7679      7682      7683
      7681      7679      7682      7684      7681      7679      7682      7685
      7682      7685      7688      7689      7682      7685      7688      7690
      7682      7685      7688      7691      7683      7682      7685      7686
      7683      7682      7685      7687      7683      7682      7685      7688
      7684      7682      7685      7686      7684      7682      7685      7687
      7684      7682      7685      7688      7685      7688      7691      7692
      7685      7688      7691      7693      7685      7688      7691      7694
      7686      7685      7688      7689      7686      7685      7688      7690
      7686      7685      7688      7691      7687      7685      7688      7689
      7687      7685      7688      7690      7687      7685      7688      7691
      7688      7691      7694      7695      7688      7691      7694      7696
      7688      7691      7694      7697      7689      7688      7691      7692
      7689      7688      7691      7693      7689      7688      7691      7694
      7690      7688      7691      7692      7690      7688      7691      7693
      7690      7688      7691      7694      7691      7694      7697      7698
      7691      7694      7697      7699      7691      7694      7697      7700
      7692      7691      7694      7695      7692      7691      7694      7696
      7692      7691      7694      7697      7693      7691      7694      7695
      7693      7691      7694      7696      7693      7691      7694      7697
      7694      7697      7700      7701      7694      7697      7700      7702
      7694      7697      7700      7703      7695      7694      7697      7698
      7695      7694      7697      7699      7695      7694      7697      7700
      7696      7694      7697      7698      7696      7694      7697      7699
      7696      7694      7697      7700      7697      7700      7703      7704
      7697      7700      7703      7705      7697      7700      7703      7706
      7698      7697      7700      7701      7698      7697      7700      7702
      7698      7697      7700      7703      7699      7697      7700      7701
      7699      7697      7700      7702      7699      7697      7700      7703
      7701      7700      7703      7704      7701      7700      7703      7705
      7701      7700      7703      7706      7702      7700      7703      7704
      7702      7700      7703      7705      7702      7700      7703      7706
      7707      7708      7723      7724      7707      7708      7723      7725
      7707      7708      7723      7729      7708      7707      7711      7712
      7708      7707      7711      7713      7708      7707      7711      7714
      7708      7707      7715      7716      7708      7707      7715      7717
      7708      7707      7715      7718      7708      7707      7719      7720
      7708      7707      7719      7721      7708      7707      7719      7722
      7708      7723      7729      7726      7709      7708      7707      7711
      7709      7708      7707      7715      7709      7708      7707      7719
      7709      7708      7723      7724      7709      7708      7723      7725
      7709      7708      7723      7729      7710      7708      7707      7711
      7710      7708      7707      7715      7710      7708      7707      7719
      7710      7708      7723      7724      7710      7708      7723      7725
      7710      7708      7723      7729      7711      7707      7708      7723
      7711      7707      7715      7716      7711      7707      7715      7717
      7711      7707      7715      7718      7711      7707      7719      7720
      7711      7707      7719      7721      7711      7707      7719      7722
      7712      7711      7707      7715      7712      7711      7707      7719
      7713      7711      7707      7715      7713      7711      7707      7719
      7714      7711      7707      7715      7714      7711      7707      7719
      7715      7707      7708      7723      7715      7707      7719      7720
      7715      7707      7719      7721      7715      7707      7719      7722
      7716      7715      7707      7719      7717      7715      7707      7719
      7718      7715      7707      7719      7719      7707      7708      7723
      7723      7729      7726      7727      7723      7729      7726      7728
      7723      7729      7726      7730      7724      7723      7729      7726
      7725      7723      7729      7726      7726      7730      7731      7732
      7726      7730      7731      7733      7726      7730      7731      7734
      7727      7726      7730      7731      7728      7726      7730      7731
      7729      7726      7730      7731      7730      7731      7734      7735
      7730      7731      7734      7736      7730      7731      7734      7742
      7731      7734      7736      7737      7731      7734      7742      7743
      7731      7734      7742      7744      7731      7734      7742      7745
      7732      7731      7734      7735      7732      7731      7734      7736
      7732      7731      7734      7742      7733      7731      7734      7735
      7733      7731      7734      7736      7733      7731      7734      7742
      7734      7736      7737      7738      7734      7736      7737      7739
      7734      7742      7745      7746      7735      7734      7736      7737
      7735      7734      7742      7743      7735      7734      7742      7744
      7735      7734      7742      7745      7736      7734      7742      7743
      7736      7734      7742      7744      7736      7734      7742      7745
      7736      7737      7739      7740      7736      7737      7739      7741
      7736      7737      7739      7751      7737      7736      7734      7742
      7737      7739      7751      7752      7737      7739      7751      7753
      7737      7739      7751      7754      7738      7737      7739      7740
      7738      7737      7739      7741      7738      7737      7739      7751
      7739      7751      7754      7755      7739      7751      7754      7756
      7739      7751      7754      7757      7740      7739      7751      7752
      7740      7739      7751      7753      7740      7739      7751      7754
      7741      7739      7751      7752      7741      7739      7751      7753
      7741      7739      7751      7754      7742      7745      7746      7747
      7742      7745      7746      7748      7743      7742      7745      7746
      7744      7742      7745      7746      7745      7746      7748      7749
      7745      7746      7748      7750      7745      7746      7748      7798
      7746      7748      7798      7799      7746      7748      7798      7800
      7746      7748      7798      7801      7747      7746      7748      7749
      7747      7746      7748      7750      7747      7746      7748      7798
      7748      7798      7801      7802      7748      7798      7801      7803
      7748      7798      7801      7804      7749      7748      7798      7799
      7749      7748      7798      7800      7749      7748      7798      7801
      7750      7748      7798      7799      7750      7748      7798      7800
      7750      7748      7798      7801      7751      7754      7757      7758
      7751      7754      7757      7759      7751      7754      7757      7760
      7752      7751      7754      7755      7752      7751      7754      7756
      7752      7751      7754      7757      7753      7751      7754      7755
      7753      7751      7754      7756      7753      7751      7754      7757
      7754      7757      7760      7761      7754      7757      7760      7762
      7754      7757      7760      7763      7755      7754      7757      7758
      7755      7754      7757      7759      7755      7754      7757      7760
      7756      7754      7757      7758      7756      7754      7757      7759
      7756      7754      7757      7760      7757      7760      7763      7764
      7757      7760      7763      7765      7757      7760      7763      7766
      7758      7757      7760      7761      7758      7757      7760      7762
      7758      7757      7760      7763      7759      7757      7760      7761
      7759      7757      7760      7762      7759      7757      7760      7763
      7760      7763      7766      7767      7760      7763      7766      7768
      7760      7763      7766      7769      7761      7760      7763      7764
      7761      7760      7763      7765      7761      7760      7763      7766
      7762      7760      7763      7764      7762      7760      7763      7765
      7762      7760      7763      7766      7763      7766      7769      7770
      7763      7766      7769      7771      7764      7763      7766      7767
      7764      7763      7766      7768      7764      7763      7766      7769
      7765      7763      7766      7767      7765      7763      7766      7768
      7765      7763      7766      7769      7766      7769      7771      7772
      7766      7769      7771      7773      7767      7766      7769      7770
      7767      7766      7769      7771      7768      7766      7769      7770
      7768      7766      7769      7771      7769      7771      7773      7774
      7769      7771      7773      7775      7769      7771      7773      7776
      7770      7769      7771      7772      7770      7769      7771      7773
      7771      7773      7776      7777      7771      7773      7776      7778
      7771      7773      7776      7779      7772      7771      7773      7774
      7772      7771      7773      7775      7772      7771      7773      7776
      7773      7776      7779      7780      7773      7776      7779      7781
      7773      7776      7779      7782      7774      7773      7776      7777
      7774      7773      7776      7778      7774      7773      7776      7779
      7775      7773      7776      7777      7775      7773      7776      7778
      7775      7773      7776      7779      7776      7779      7782      7783
      7776      7779      7782      7784      7776      7779      7782      7785
      7777      7776      7779      7780      7777      7776      7779      7781
      7777      7776      7779      7782      7778      7776      7779      7780
      7778      7776      7779      7781      7778      7776      7779      7782
      7779      7782      7785      7786      7779      7782      7785      7787
      7779      7782      7785      7788      7780      7779      7782      7783
      7780      7779      7782      7784      7780      7779      7782      7785
      7781      7779      7782      7783      7781      7779      7782      7784
      7781      7779      7782      7785      7782      7785      7788      7789
      7782      7785      7788      7790      7782      7785      7788      7791
      7783      7782      7785      7786      7783      7782      7785      7787
      7783      7782      7785      7788      7784      7782      7785      7786
      7784      7782      7785      7787      7784      7782      7785      7788
      7785      7788      7791      7792      7785      7788      7791      7793
      7785      7788      7791      7794      7786      7785      7788      7789
      7786      7785      7788      7790      7786      7785      7788      7791
      7787      7785      7788      7789      7787      7785      7788      7790
      7787      7785      7788      7791      7788      7791      7794      7795
      7788      7791      7794      7796      7788      7791      7794      7797
      7789      7788      7791      7792      7789      7788      7791      7793
      7789      7788      7791      7794      7790      7788      7791      7792
      7790      7788      7791      7793      7790      7788      7791      7794
      7792      7791      7794      7795      7792      7791      7794      7796
      7792      7791      7794      7797      7793      7791      7794      7795
      7793      7791      7794      7796      7793      7791      7794      7797
      7798      7801      7804      7805      7798      7801      7804      7806
      7798      7801      7804      7807      7799      7798      7801      7802
      7799      7798      7801      7803      7799      7798      7801      7804
      7800      7798      7801      7802      7800      7798      7801      7803
      7800      7798      7801      7804      7801      7804      7807      7808
      7801      7804      7807      7809      7801      7804      7807      7810
      7802      7801      7804      7805      7802      7801      7804      7806
      7802      7801      7804      7807      7803      7801      7804      7805
      7803      7801      7804      7806      7803      7801      7804      7807
      7804      7807      7810      7811      7804      7807      7810      7812
      7804      7807      7810      7813      7805      7804      7807      7808
      7805      7804      7807      7809      7805      7804      7807      7810
      7806      7804      7807      7808      7806      7804      7807      7809
      7806      7804      7807      7810      7807      7810      7813      7814
      7807      7810      7813      7815      7807      7810      7813      7816
      7808      7807      7810      7811      7808      7807      7810      7812
      7808      7807      7810      7813      7809      7807      7810      7811
      7809      7807      7810      7812      7809      7807      7810      7813
      7810      7813      7816      7817      7810      7813      7816      7818
      7810      7813      7816      7819      7811      7810      7813      7814
      7811      7810      7813      7815      7811      7810      7813      7816
      7812      7810      7813      7814      7812      7810      7813      7815
      7812      7810      7813      7816      7813      7816      7819      7820
      7813      7816      7819      7821      7813      7816      7819      7822
      7814      7813      7816      7817      7814      7813      7816      7818
      7814      7813      7816      7819      7815      7813      7816      7817
      7815      7813      7816      7818      7815      7813      7816      7819
      7816      7819      7822      7823      7816      7819      7822      7824
      7816      7819      7822      7825      7817      7816      7819      7820
      7817      7816      7819      7821      7817      7816      7819      7822
      7818      7816      7819      7820      7818      7816      7819      7821
      7818      7816      7819      7822      7819      7822      7825      7826
      7819      7822      7825      7827      7819      7822      7825      7828
      7820      7819      7822      7823      7820      7819      7822      7824
      7820      7819      7822      7825      7821      7819      7822      7823
      7821      7819      7822      7824      7821      7819      7822      7825
      7822      7825      7828      7829      7822      7825      7828      7830
      7822      7825      7828      7831      7823      7822      7825      7826
      7823      7822      7825      7827      7823      7822      7825      7828
      7824      7822      7825      7826      7824      7822      7825      7827
      7824      7822      7825      7828      7825      7828      7831      7832
      7825      7828      7831      7833      7825      7828      7831      7834
      7826      7825      7828      7829      7826      7825      7828      7830
      7826      7825      7828      7831      7827      7825      7828      7829
      7827      7825      7828      7830      7827      7825      7828      7831
      7828      7831      7834      7835      7828      7831      7834      7836
      7828      7831      7834      7837      7829      7828      7831      7832
      7829      7828      7831      7833      7829      7828      7831      7834
      7830      7828      7831      7832      7830      7828      7831      7833
      7830      7828      7831      7834      7831      7834      7837      7838
      7831      7834      7837      7839      7831      7834      7837      7840
      7832      7831      7834      7835      7832      7831      7834      7836
      7832      7831      7834      7837      7833      7831      7834      7835
      7833      7831      7834      7836      7833      7831      7834      7837
      7835      7834      7837      7838      7835      7834      7837      7839
      7835      7834      7837      7840      7836      7834      7837      7838
      7836      7834      7837      7839      7836      7834      7837      7840
      7841      7842      7857      7858      7841      7842      7857      7859
      7841      7842      7857      7863      7842      7841      7845      7846
      7842      7841      7845      7847      7842      7841      7845      7848
      7842      7841      7849      7850      7842      7841      7849      7851
      7842      7841      7849      7852      7842      7841      7853      7854
      7842      7841      7853      7855      7842      7841      7853      7856
      7842      7857      7863      7860      7843      7842      7841      7845
      7843      7842      7841      7849      7843      7842      7841      7853
      7843      7842      7857      7858      7843      7842      7857      7859
      7843      7842      7857      7863      7844      7842      7841      7845
      7844      7842      7841      7849      7844      7842      7841      7853
      7844      7842      7857      7858      7844      7842      7857      7859
      7844      7842      7857      7863      7845      7841      7842      7857
      7845      7841      7849      7850      7845      7841      7849      7851
      7845      7841      7849      7852      7845      7841      7853      7854
      7845      7841      7853      7855      7845      7841      7853      7856
      7846      7845      7841      7849      7846      7845      7841      7853
      7847      7845      7841      7849      7847      7845      7841      7853
      7848      7845      7841      7849      7848      7845      7841      7853
      7849      7841      7842      7857      7849      7841      7853      7854
      7849      7841      7853      7855      7849      7841      7853      7856
      7850      7849      7841      7853      7851      7849      7841      7853
      7852      7849      7841      7853      7853      7841      7842      7857
      7857      7863      7860      7861      7857      7863      7860      7862
      7857      7863      7860      7864      7858      7857      7863      7860
      7859      7857      7863      7860      7860      7864      7865      7866
      7860      7864      7865      7867      7860      7864      7865      7868
      7861      7860      7864      7865      7862      7860      7864      7865
      7863      7860      7864      7865      7864      7865      7868      7869
      7864      7865      7868      7870      7864      7865      7868      7876
      7865      7868      7870      7871      7865      7868      7876      7877
      7865      7868      7876      7878      7865      7868      7876      7879
      7866      7865      7868      7869      7866      7865      7868      7870
      7866      7865      7868      7876      7867      7865      7868      7869
      7867      7865      7868      7870      7867      7865      7868      7876
      7868      7870      7871      7872      7868      7870      7871      7873
      7868      7876      7879      7880      7869      7868      7870      7871
      7869      7868      7876      7877      7869      7868      7876      7878
      7869      7868      7876      7879      7870      7868      7876      7877
      7870      7868      7876      7878      7870      7868      7876      7879
      7870      7871      7873      7874      7870      7871      7873      7875
      7870      7871      7873      7885      7871      7870      7868      7876
      7871      7873      7885      7886      7871      7873      7885      7887
      7871      7873      7885      7888      7872      7871      7873      7874
      7872      7871      7873      7875      7872      7871      7873      7885
      7873      7885      7888      7889      7873      7885      7888      7890
      7873      7885      7888      7891      7874      7873      7885      7886
      7874      7873      7885      7887      7874      7873      7885      7888
      7875      7873      7885      7886      7875      7873      7885      7887
      7875      7873      7885      7888      7876      7879      7880      7881
      7876      7879      7880      7882      7877      7876      7879      7880
      7878      7876      7879      7880      7879      7880      7882      7883
      7879      7880      7882      7884      7879      7880      7882      7932
      7880      7882      7932      7933      7880      7882      7932      7934
      7880      7882      7932      7935      7881      7880      7882      7883
      7881      7880      7882      7884      7881      7880      7882      7932
      7882      7932      7935      7936      7882      7932      7935      7937
      7882      7932      7935      7938      7883      7882      7932      7933
      7883      7882      7932      7934      7883      7882      7932      7935
      7884      7882      7932      7933      7884      7882      7932      7934
      7884      7882      7932      7935      7885      7888      7891      7892
      7885      7888      7891      7893      7885      7888      7891      7894
      7886      7885      7888      7889      7886      7885      7888      7890
      7886      7885      7888      7891      7887      7885      7888      7889
      7887      7885      7888      7890      7887      7885      7888      7891
      7888      7891      7894      7895      7888      7891      7894      7896
      7888      7891      7894      7897      7889      7888      7891      7892
      7889      7888      7891      7893      7889      7888      7891      7894
      7890      7888      7891      7892      7890      7888      7891      7893
      7890      7888      7891      7894      7891      7894      7897      7898
      7891      7894      7897      7899      7891      7894      7897      7900
      7892      7891      7894      7895      7892      7891      7894      7896
      7892      7891      7894      7897      7893      7891      7894      7895
      7893      7891      7894      7896      7893      7891      7894      7897
      7894      7897      7900      7901      7894      7897      7900      7902
      7894      7897      7900      7903      7895      7894      7897      7898
      7895      7894      7897      7899      7895      7894      7897      7900
      7896      7894      7897      7898      7896      7894      7897      7899
      7896      7894      7897      7900      7897      7900      7903      7904
      7897      7900      7903      7905      7898      7897      7900      7901
      7898      7897      7900      7902      7898      7897      7900      7903
      7899      7897      7900      7901      7899      7897      7900      7902
      7899      7897      7900      7903      7900      7903      7905      7906
      7900      7903      7905      7907      7901      7900      7903      7904
      7901      7900      7903      7905      7902      7900      7903      7904
      7902      7900      7903      7905      7903      7905      7907      7908
      7903      7905      7907      7909      7903      7905      7907      7910
      7904      7903      7905      7906      7904      7903      7905      7907
      7905      7907      7910      7911      7905      7907      7910      7912
      7905      7907      7910      7913      7906      7905      7907      7908
      7906      7905      7907      7909      7906      7905      7907      7910
      7907      7910      7913      7914      7907      7910      7913      7915
      7907      7910      7913      7916      7908      7907      7910      7911
      7908      7907      7910      7912      7908      7907      7910      7913
      7909      7907      7910      7911      7909      7907      7910      7912
      7909      7907      7910      7913      7910      7913      7916      7917
      7910      7913      7916      7918      7910      7913      7916      7919
      7911      7910      7913      7914      7911      7910      7913      7915
      7911      7910      7913      7916      7912      7910      7913      7914
      7912      7910      7913      7915      7912      7910      7913      7916
      7913      7916      7919      7920      7913      7916      7919      7921
      7913      7916      7919      7922      7914      7913      7916      7917
      7914      7913      7916      7918      7914      7913      7916      7919
      7915      7913      7916      7917      7915      7913      7916      7918
      7915      7913      7916      7919      7916      7919      7922      7923
      7916      7919      7922      7924      7916      7919      7922      7925
      7917      7916      7919      7920      7917      7916      7919      7921
      7917      7916      7919      7922      7918      7916      7919      7920
      7918      7916      7919      7921      7918      7916      7919      7922
      7919      7922      7925      7926      7919      7922      7925      7927
      7919      7922      7925      7928      7920      7919      7922      7923
      7920      7919      7922      7924      7920      7919      7922      7925
      7921      7919      7922      7923      7921      7919      7922      7924
      7921      7919      7922      7925      7922      7925      7928      7929
      7922      7925      7928      7930      7922      7925      7928      7931
      7923      7922      7925      7926      7923      7922      7925      7927
      7923      7922      7925      7928      7924      7922      7925      7926
      7924      7922      7925      7927      7924      7922      7925      7928
      7926      7925      7928      7929      7926      7925      7928      7930
      7926      7925      7928      7931      7927      7925      7928      7929
      7927      7925      7928      7930      7927      7925      7928      7931
      7932      7935      7938      7939      7932      7935      7938      7940
      7932      7935      7938      7941      7933      7932      7935      7936
      7933      7932      7935      7937      7933      7932      7935      7938
      7934      7932      7935      7936      7934      7932      7935      7937
      7934      7932      7935      7938      7935      7938      7941      7942
      7935      7938      7941      7943      7935      7938      7941      7944
      7936      7935      7938      7939      7936      7935      7938      7940
      7936      7935      7938      7941      7937      7935      7938      7939
      7937      7935      7938      7940      7937      7935      7938      7941
      7938      7941      7944      7945      7938      7941      7944      7946
      7938      7941      7944      7947      7939      7938      7941      7942
      7939      7938      7941      7943      7939      7938      7941      7944
      7940      7938      7941      7942      7940      7938      7941      7943
      7940      7938      7941      7944      7941      7944      7947      7948
      7941      7944      7947      7949      7941      7944      7947      7950
      7942      7941      7944      7945      7942      7941      7944      7946
      7942      7941      7944      7947      7943      7941      7944      7945
      7943      7941      7944      7946      7943      7941      7944      7947
      7944      7947      7950      7951      7944      7947      7950      7952
      7944      7947      7950      7953      7945      7944      7947      7948
      7945      7944      7947      7949      7945      7944      7947      7950
      7946      7944      7947      7948      7946      7944      7947      7949
      7946      7944      7947      7950      7947      7950      7953      7954
      7947      7950      7953      7955      7947      7950      7953      7956
      7948      7947      7950      7951      7948      7947      7950      7952
      7948      7947      7950      7953      7949      7947      7950      7951
      7949      7947      7950      7952      7949      7947      7950      7953
      7950      7953      7956      7957      7950      7953      7956      7958
      7950      7953      7956      7959      7951      7950      7953      7954
      7951      7950      7953      7955      7951      7950      7953      7956
      7952      7950      7953      7954      7952      7950      7953      7955
      7952      7950      7953      7956      7953      7956      7959      7960
      7953      7956      7959      7961      7953      7956      7959      7962
      7954      7953      7956      7957      7954      7953      7956      7958
      7954      7953      7956      7959      7955      7953      7956      7957
      7955      7953      7956      7958      7955      7953      7956      7959
      7956      7959      7962      7963      7956      7959      7962      7964
      7956      7959      7962      7965      7957      7956      7959      7960
      7957      7956      7959      7961      7957      7956      7959      7962
      7958      7956      7959      7960      7958      7956      7959      7961
      7958      7956      7959      7962      7959      7962      7965      7966
      7959      7962      7965      7967      7959      7962      7965      7968
      7960      7959      7962      7963      7960      7959      7962      7964
      7960      7959      7962      7965      7961      7959      7962      7963
      7961      7959      7962      7964      7961      7959      7962      7965
      7962      7965      7968      7969      7962      7965      7968      7970
      7962      7965      7968      7971      7963      7962      7965      7966
      7963      7962      7965      7967      7963      7962      7965      7968
      7964      7962      7965      7966      7964      7962      7965      7967
      7964      7962      7965      7968      7965      7968      7971      7972
      7965      7968      7971      7973      7965      7968      7971      7974
      7966      7965      7968      7969      7966      7965      7968      7970
      7966      7965      7968      7971      7967      7965      7968      7969
      7967      7965      7968      7970      7967      7965      7968      7971
      7969      7968      7971      7972      7969      7968      7971      7973
      7969      7968      7971      7974      7970      7968      7971      7972
      7970      7968      7971      7973      7970      7968      7971      7974
      7975      7976      7991      7992      7975      7976      7991      7993
      7975      7976      7991      7997      7976      7975      7979      7980
      7976      7975      7979      7981      7976      7975      7979      7982
      7976      7975      7983      7984      7976      7975      7983      7985
      7976      7975      7983      7986      7976      7975      7987      7988
      7976      7975      7987      7989      7976      7975      7987      7990
      7976      7991      7997      7994      7977      7976      7975      7979
      7977      7976      7975      7983      7977      7976      7975      7987
      7977      7976      7991      7992      7977      7976      7991      7993
      7977      7976      7991      7997      7978      7976      7975      7979
      7978      7976      7975      7983      7978      7976      7975      7987
      7978      7976      7991      7992      7978      7976      7991      7993
      7978      7976      7991      7997      7979      7975      7976      7991
      7979      7975      7983      7984      7979      7975      7983      7985
      7979      7975      7983      7986      7979      7975      7987      7988
      7979      7975      7987      7989      7979      7975      7987      7990
      7980      7979      7975      7983      7980      7979      7975      7987
      7981      7979      7975      7983      7981      7979      7975      7987
      7982      7979      7975      7983      7982      7979      7975      7987
      7983      7975      7976      7991      7983      7975      7987      7988
      7983      7975      7987      7989      7983      7975      7987      7990
      7984      7983      7975      7987      7985      7983      7975      7987
      7986      7983      7975      7987      7987      7975      7976      7991
      7991      7997      7994      7995      7991      7997      7994      7996
      7991      7997      7994      7998      7992      7991      7997      7994
      7993      7991      7997      7994      7994      7998      7999      8000
      7994      7998      7999      8001      7994      7998      7999      8002
      7995      7994      7998      7999      7996      7994      7998      7999
      7997      7994      7998      7999      7998      7999      8002      8003
      7998      7999      8002      8004      7998      7999      8002      8010
      7999      8002      8004      8005      7999      8002      8010      8011
      7999      8002      8010      8012      7999      8002      8010      8013
      8000      7999      8002      8003      8000      7999      8002      8004
      8000      7999      8002      8010      8001      7999      8002      8003
      8001      7999      8002      8004      8001      7999      8002      8010
      8002      8004      8005      8006      8002      8004      8005      8007
      8002      8010      8013      8014      8003      8002      8004      8005
      8003      8002      8010      8011      8003      8002      8010      8012
      8003      8002      8010      8013      8004      8002      8010      8011
      8004      8002      8010      8012      8004      8002      8010      8013
      8004      8005      8007      8008      8004      8005      8007      8009
      8004      8005      8007      8019      8005      8004      8002      8010
      8005      8007      8019      8020      8005      8007      8019      8021
      8005      8007      8019      8022      8006      8005      8007      8008
      8006      8005      8007      8009      8006      8005      8007      8019
      8007      8019      8022      8023      8007      8019      8022      8024
      8007      8019      8022      8025      8008      8007      8019      8020
      8008      8007      8019      8021      8008      8007      8019      8022
      8009      8007      8019      8020      8009      8007      8019      8021
      8009      8007      8019      8022      8010      8013      8014      8015
      8010      8013      8014      8016      8011      8010      8013      8014
      8012      8010      8013      8014      8013      8014      8016      8017
      8013      8014      8016      8018      8013      8014      8016      8066
      8014      8016      8066      8067      8014      8016      8066      8068
      8014      8016      8066      8069      8015      8014      8016      8017
      8015      8014      8016      8018      8015      8014      8016      8066
      8016      8066      8069      8070      8016      8066      8069      8071
      8016      8066      8069      8072      8017      8016      8066      8067
      8017      8016      8066      8068      8017      8016      8066      8069
      8018      8016      8066      8067      8018      8016      8066      8068
      8018      8016      8066      8069      8019      8022      8025      8026
      8019      8022      8025      8027      8019      8022      8025      8028
      8020      8019      8022      8023      8020      8019      8022      8024
      8020      8019      8022      8025      8021      8019      8022      8023
      8021      8019      8022      8024      8021      8019      8022      8025
      8022      8025      8028      8029      8022      8025      8028      8030
      8022      8025      8028      8031      8023      8022      8025      8026
      8023      8022      8025      8027      8023      8022      8025      8028
      8024      8022      8025      8026      8024      8022      8025      8027
      8024      8022      8025      8028      8025      8028      8031      8032
      8025      8028      8031      8033      8025      8028      8031      8034
      8026      8025      8028      8029      8026      8025      8028      8030
      8026      8025      8028      8031      8027      8025      8028      8029
      8027      8025      8028      8030      8027      8025      8028      8031
      8028      8031      8034      8035      8028      8031      8034      8036
      8028      8031      8034      8037      8029      8028      8031      8032
      8029      8028      8031      8033      8029      8028      8031      8034
      8030      8028      8031      8032      8030      8028      8031      8033
      8030      8028      8031      8034      8031      8034      8037      8038
      8031      8034      8037      8039      8032      8031      8034      8035
      8032      8031      8034      8036      8032      8031      8034      8037
      8033      8031      8034      8035      8033      8031      8034      8036
      8033      8031      8034      8037      8034      8037      8039      8040
      8034      8037      8039      8041      8035      8034      8037      8038
      8035      8034      8037      8039      8036      8034      8037      8038
      8036      8034      8037      8039      8037      8039      8041      8042
      8037      8039      8041      8043      8037      8039      8041      8044
      8038      8037      8039      8040      8038      8037      8039      8041
      8039      8041      8044      8045      8039      8041      8044      8046
      8039      8041      8044      8047      8040      8039      8041      8042
      8040      8039      8041      8043      8040      8039      8041      8044
      8041      8044      8047      8048      8041      8044      8047      8049
      8041      8044      8047      8050      8042      8041      8044      8045
      8042      8041      8044      8046      8042      8041      8044      8047
      8043      8041      8044      8045      8043      8041      8044      8046
      8043      8041      8044      8047      8044      8047      8050      8051
      8044      8047      8050      8052      8044      8047      8050      8053
      8045      8044      8047      8048      8045      8044      8047      8049
      8045      8044      8047      8050      8046      8044      8047      8048
      8046      8044      8047      8049      8046      8044      8047      8050
      8047      8050      8053      8054      8047      8050      8053      8055
      8047      8050      8053      8056      8048      8047      8050      8051
      8048      8047      8050      8052      8048      8047      8050      8053
      8049      8047      8050      8051      8049      8047      8050      8052
      8049      8047      8050      8053      8050      8053      8056      8057
      8050      8053      8056      8058      8050      8053      8056      8059
      8051      8050      8053      8054      8051      8050      8053      8055
      8051      8050      8053      8056      8052      8050      8053      8054
      8052      8050      8053      8055      8052      8050      8053      8056
      8053      8056      8059      8060      8053      8056      8059      8061
      8053      8056      8059      8062      8054      8053      8056      8057
      8054      8053      8056      8058      8054      8053      8056      8059
      8055      8053      8056      8057      8055      8053      8056      8058
      8055      8053      8056      8059      8056      8059      8062      8063
      8056      8059      8062      8064      8056      8059      8062      8065
      8057      8056      8059      8060      8057      8056      8059      8061
      8057      8056      8059      8062      8058      8056      8059      8060
      8058      8056      8059      8061      8058      8056      8059      8062
      8060      8059      8062      8063      8060      8059      8062      8064
      8060      8059      8062      8065      8061      8059      8062      8063
      8061      8059      8062      8064      8061      8059      8062      8065
      8066      8069      8072      8073      8066      8069      8072      8074
      8066      8069      8072      8075      8067      8066      8069      8070
      8067      8066      8069      8071      8067      8066      8069      8072
      8068      8066      8069      8070      8068      8066      8069      8071
      8068      8066      8069      8072      8069      8072      8075      8076
      8069      8072      8075      8077      8069      8072      8075      8078
      8070      8069      8072      8073      8070      8069      8072      8074
      8070      8069      8072      8075      8071      8069      8072      8073
      8071      8069      8072      8074      8071      8069      8072      8075
      8072      8075      8078      8079      8072      8075      8078      8080
      8072      8075      8078      8081      8073      8072      8075      8076
      8073      8072      8075      8077      8073      8072      8075      8078
      8074      8072      8075      8076      8074      8072      8075      8077
      8074      8072      8075      8078      8075      8078      8081      8082
      8075      8078      8081      8083      8075      8078      8081      8084
      8076      8075      8078      8079      8076      8075      8078      8080
      8076      8075      8078      8081      8077      8075      8078      8079
      8077      8075      8078      8080      8077      8075      8078      8081
      8078      8081      8084      8085      8078      8081      8084      8086
      8078      8081      8084      8087      8079      8078      8081      8082
      8079      8078      8081      8083      8079      8078      8081      8084
      8080      8078      8081      8082      8080      8078      8081      8083
      8080      8078      8081      8084      8081      8084      8087      8088
      8081      8084      8087      8089      8081      8084      8087      8090
      8082      8081      8084      8085      8082      8081      8084      8086
      8082      8081      8084      8087      8083      8081      8084      8085
      8083      8081      8084      8086      8083      8081      8084      8087
      8084      8087      8090      8091      8084      8087      8090      8092
      8084      8087      8090      8093      8085      8084      8087      8088
      8085      8084      8087      8089      8085      8084      8087      8090
      8086      8084      8087      8088      8086      8084      8087      8089
      8086      8084      8087      8090      8087      8090      8093      8094
      8087      8090      8093      8095      8087      8090      8093      8096
      8088      8087      8090      8091      8088      8087      8090      8092
      8088      8087      8090      8093      8089      8087      8090      8091
      8089      8087      8090      8092      8089      8087      8090      8093
      8090      8093      8096      8097      8090      8093      8096      8098
      8090      8093      8096      8099      8091      8090      8093      8094
      8091      8090      8093      8095      8091      8090      8093      8096
      8092      8090      8093      8094      8092      8090      8093      8095
      8092      8090      8093      8096      8093      8096      8099      8100
      8093      8096      8099      8101      8093      8096      8099      8102
      8094      8093      8096      8097      8094      8093      8096      8098
      8094      8093      8096      8099      8095      8093      8096      8097
      8095      8093      8096      8098      8095      8093      8096      8099
      8096      8099      8102      8103      8096      8099      8102      8104
      8096      8099      8102      8105      8097      8096      8099      8100
      8097      8096      8099      8101      8097      8096      8099      8102
      8098      8096      8099      8100      8098      8096      8099      8101
      8098      8096      8099      8102      8099      8102      8105      8106
      8099      8102      8105      8107      8099      8102      8105      8108
      8100      8099      8102      8103      8100      8099      8102      8104
      8100      8099      8102      8105      8101      8099      8102      8103
      8101      8099      8102      8104      8101      8099      8102      8105
      8103      8102      8105      8106      8103      8102      8105      8107
      8103      8102      8105      8108      8104      8102      8105      8106
      8104      8102      8105      8107      8104      8102      8105      8108
      8109      8110      8125      8126      8109      8110      8125      8127
      8109      8110      8125      8131      8110      8109      8113      8114
      8110      8109      8113      8115      8110      8109      8113      8116
      8110      8109      8117      8118      8110      8109      8117      8119
      8110      8109      8117      8120      8110      8109      8121      8122
      8110      8109      8121      8123      8110      8109      8121      8124
      8110      8125      8131      8128      8111      8110      8109      8113
      8111      8110      8109      8117      8111      8110      8109      8121
      8111      8110      8125      8126      8111      8110      8125      8127
      8111      8110      8125      8131      8112      8110      8109      8113
      8112      8110      8109      8117      8112      8110      8109      8121
      8112      8110      8125      8126      8112      8110      8125      8127
      8112      8110      8125      8131      8113      8109      8110      8125
      8113      8109      8117      8118      8113      8109      8117      8119
      8113      8109      8117      8120      8113      8109      8121      8122
      8113      8109      8121      8123      8113      8109      8121      8124
      8114      8113      8109      8117      8114      8113      8109      8121
      8115      8113      8109      8117      8115      8113      8109      8121
      8116      8113      8109      8117      8116      8113      8109      8121
      8117      8109      8110      8125      8117      8109      8121      8122
      8117      8109      8121      8123      8117      8109      8121      8124
      8118      8117      8109      8121      8119      8117      8109      8121
      8120      8117      8109      8121      8121      8109      8110      8125
      8125      8131      8128      8129      8125      8131      8128      8130
      8125      8131      8128      8132      8126      8125      8131      8128
      8127      8125      8131      8128      8128      8132      8133      8134
      8128      8132      8133      8135      8128      8132      8133      8136
      8129      8128      8132      8133      8130      8128      8132      8133
      8131      8128      8132      8133      8132      8133      8136      8137
      8132      8133      8136      8138      8132      8133      8136      8144
      8133      8136      8138      8139      8133      8136      8144      8145
      8133      8136      8144      8146      8133      8136      8144      8147
      8134      8133      8136      8137      8134      8133      8136      8138
      8134      8133      8136      8144      8135      8133      8136      8137
      8135      8133      8136      8138      8135      8133      8136      8144
      8136      8138      8139      8140      8136      8138      8139      8141
      8136      8144      8147      8148      8137      8136      8138      8139
      8137      8136      8144      8145      8137      8136      8144      8146
      8137      8136      8144      8147      8138      8136      8144      8145
      8138      8136      8144      8146      8138      8136      8144      8147
      8138      8139      8141      8142      8138      8139      8141      8143
      8138      8139      8141      8153      8139      8138      8136      8144
      8139      8141      8153      8154      8139      8141      8153      8155
      8139      8141      8153      8156      8140      8139      8141      8142
      8140      8139      8141      8143      8140      8139      8141      8153
      8141      8153      8156      8157      8141      8153      8156      8158
      8141      8153      8156      8159      8142      8141      8153      8154
      8142      8141      8153      8155      8142      8141      8153      8156
      8143      8141      8153      8154      8143      8141      8153      8155
      8143      8141      8153      8156      8144      8147      8148      8149
      8144      8147      8148      8150      8145      8144      8147      8148
      8146      8144      8147      8148      8147      8148      8150      8151
      8147      8148      8150      8152      8147      8148      8150      8200
      8148      8150      8200      8201      8148      8150      8200      8202
      8148      8150      8200      8203      8149      8148      8150      8151
      8149      8148      8150      8152      8149      8148      8150      8200
      8150      8200      8203      8204      8150      8200      8203      8205
      8150      8200      8203      8206      8151      8150      8200      8201
      8151      8150      8200      8202      8151      8150      8200      8203
      8152      8150      8200      8201      8152      8150      8200      8202
      8152      8150      8200      8203      8153      8156      8159      8160
      8153      8156      8159      8161      8153      8156      8159      8162
      8154      8153      8156      8157      8154      8153      8156      8158
      8154      8153      8156      8159      8155      8153      8156      8157
      8155      8153      8156      8158      8155      8153      8156      8159
      8156      8159      8162      8163      8156      8159      8162      8164
      8156      8159      8162      8165      8157      8156      8159      8160
      8157      8156      8159      8161      8157      8156      8159      8162
      8158      8156      8159      8160      8158      8156      8159      8161
      8158      8156      8159      8162      8159      8162      8165      8166
      8159      8162      8165      8167      8159      8162      8165      8168
      8160      8159      8162      8163      8160      8159      8162      8164
      8160      8159      8162      8165      8161      8159      8162      8163
      8161      8159      8162      8164      8161      8159      8162      8165
      8162      8165      8168      8169      8162      8165      8168      8170
      8162      8165      8168      8171      8163      8162      8165      8166
      8163      8162      8165      8167      8163      8162      8165      8168
      8164      8162      8165      8166      8164      8162      8165      8167
      8164      8162      8165      8168      8165      8168      8171      8172
      8165      8168      8171      8173      8166      8165      8168      8169
      8166      8165      8168      8170      8166      8165      8168      8171
      8167      8165      8168      8169      8167      8165      8168      8170
      8167      8165      8168      8171      8168      8171      8173      8174
      8168      8171      8173      8175      8169      8168      8171      8172
      8169      8168      8171      8173      8170      8168      8171      8172
      8170      8168      8171      8173      8171      8173      8175      8176
      8171      8173      8175      8177      8171      8173      8175      8178
      8172      8171      8173      8174      8172      8171      8173      8175
      8173      8175      8178      8179      8173      8175      8178      8180
      8173      8175      8178      8181      8174      8173      8175      8176
      8174      8173      8175      8177      8174      8173      8175      8178
      8175      8178      8181      8182      8175      8178      8181      8183
      8175      8178      8181      8184      8176      8175      8178      8179
      8176      8175      8178      8180      8176      8175      8178      8181
      8177      8175      8178      8179      8177      8175      8178      8180
      8177      8175      8178      8181      8178      8181      8184      8185
      8178      8181      8184      8186      8178      8181      8184      8187
      8179      8178      8181      8182      8179      8178      8181      8183
      8179      8178      8181      8184      8180      8178      8181      8182
      8180      8178      8181      8183      8180      8178      8181      8184
      8181      8184      8187      8188      8181      8184      8187      8189
      8181      8184      8187      8190      8182      8181      8184      8185
      8182      8181      8184      8186      8182      8181      8184      8187
      8183      8181      8184      8185      8183      8181      8184      8186
      8183      8181      8184      8187      8184      8187      8190      8191
      8184      8187      8190      8192      8184      8187      8190      8193
      8185      8184      8187      8188      8185      8184      8187      8189
      8185      8184      8187      8190      8186      8184      8187      8188
      8186      8184      8187      8189      8186      8184      8187      8190
      8187      8190      8193      8194      8187      8190      8193      8195
      8187      8190      8193      8196      8188      8187      8190      8191
      8188      8187      8190      8192      8188      8187      8190      8193
      8189      8187      8190      8191      8189      8187      8190      8192
      8189      8187      8190      8193      8190      8193      8196      8197
      8190      8193      8196      8198      8190      8193      8196      8199
      8191      8190      8193      8194      8191      8190      8193      8195
      8191      8190      8193      8196      8192      8190      8193      8194
      8192      8190      8193      8195      8192      8190      8193      8196
      8194      8193      8196      8197      8194      8193      8196      8198
      8194      8193      8196      8199      8195      8193      8196      8197
      8195      8193      8196      8198      8195      8193      8196      8199
      8200      8203      8206      8207      8200      8203      8206      8208
      8200      8203      8206      8209      8201      8200      8203      8204
      8201      8200      8203      8205      8201      8200      8203      8206
      8202      8200      8203      8204      8202      8200      8203      8205
      8202      8200      8203      8206      8203      8206      8209      8210
      8203      8206      8209      8211      8203      8206      8209      8212
      8204      8203      8206      8207      8204      8203      8206      8208
      8204      8203      8206      8209      8205      8203      8206      8207
      8205      8203      8206      8208      8205      8203      8206      8209
      8206      8209      8212      8213      8206      8209      8212      8214
      8206      8209      8212      8215      8207      8206      8209      8210
      8207      8206      8209      8211      8207      8206      8209      8212
      8208      8206      8209      8210      8208      8206      8209      8211
      8208      8206      8209      8212      8209      8212      8215      8216
      8209      8212      8215      8217      8209      8212      8215      8218
      8210      8209      8212      8213      8210      8209      8212      8214
      8210      8209      8212      8215      8211      8209      8212      8213
      8211      8209      8212      8214      8211      8209      8212      8215
      8212      8215      8218      8219      8212      8215      8218      8220
      8212      8215      8218      8221      8213      8212      8215      8216
      8213      8212      8215      8217      8213      8212      8215      8218
      8214      8212      8215      8216      8214      8212      8215      8217
      8214      8212      8215      8218      8215      8218      8221      8222
      8215      8218      8221      8223      8215      8218      8221      8224
      8216      8215      8218      8219      8216      8215      8218      8220
      8216      8215      8218      8221      8217      8215      8218      8219
      8217      8215      8218      8220      8217      8215      8218      8221
      8218      8221      8224      8225      8218      8221      8224      8226
      8218      8221      8224      8227      8219      8218      8221      8222
      8219      8218      8221      8223      8219      8218      8221      8224
      8220      8218      8221      8222      8220      8218      8221      8223
      8220      8218      8221      8224      8221      8224      8227      8228
      8221      8224      8227      8229      8221      8224      8227      8230
      8222      8221      8224      8225      8222      8221      8224      8226
      8222      8221      8224      8227      8223      8221      8224      8225
      8223      8221      8224      8226      8223      8221      8224      8227
      8224      8227      8230      8231      8224      8227      8230      8232
      8224      8227      8230      8233      8225      8224      8227      8228
      8225      8224      8227      8229      8225      8224      8227      8230
      8226      8224      8227      8228      8226      8224      8227      8229
      8226      8224      8227      8230      8227      8230      8233      8234
      8227      8230      8233      8235      8227      8230      8233      8236
      8228      8227      8230      8231      8228      8227      8230      8232
      8228      8227      8230      8233      8229      8227      8230      8231
      8229      8227      8230      8232      8229      8227      8230      8233
      8230      8233      8236      8237      8230      8233      8236      8238
      8230      8233      8236      8239      8231      8230      8233      8234
      8231      8230      8233      8235      8231      8230      8233      8236
      8232      8230      8233      8234      8232      8230      8233      8235
      8232      8230      8233      8236      8233      8236      8239      8240
      8233      8236      8239      8241      8233      8236      8239      8242
      8234      8233      8236      8237      8234      8233      8236      8238
      8234      8233      8236      8239      8235      8233      8236      8237
      8235      8233      8236      8238      8235      8233      8236      8239
      8237      8236      8239      8240      8237      8236      8239      8241
      8237      8236      8239      8242      8238      8236      8239      8240
      8238      8236      8239      8241      8238      8236      8239      8242
      8243      8244      8259      8260      8243      8244      8259      8261
      8243      8244      8259      8265      8244      8243      8247      8248
      8244      8243      8247      8249      8244      8243      8247      8250
      8244      8243      8251      8252      8244      8243      8251      8253
      8244      8243      8251      8254      8244      8243      8255      8256
      8244      8243      8255      8257      8244      8243      8255      8258
      8244      8259      8265      8262      8245      8244      8243      8247
      8245      8244      8243      8251      8245      8244      8243      8255
      8245      8244      8259      8260      8245      8244      8259      8261
      8245      8244      8259      8265      8246      8244      8243      8247
      8246      8244      8243      8251      8246      8244      8243      8255
      8246      8244      8259      8260      8246      8244      8259      8261
      8246      8244      8259      8265      8247      8243      8244      8259
      8247      8243      8251      8252      8247      8243      8251      8253
      8247      8243      8251      8254      8247      8243      8255      8256
      8247      8243      8255      8257      8247      8243      8255      8258
      8248      8247      8243      8251      8248      8247      8243      8255
      8249      8247      8243      8251      8249      8247      8243      8255
      8250      8247      8243      8251      8250      8247      8243      8255
      8251      8243      8244      8259      8251      8243      8255      8256
      8251      8243      8255      8257      8251      8243      8255      8258
      8252      8251      8243      8255      8253      8251      8243      8255
      8254      8251      8243      8255      8255      8243      8244      8259
      8259      8265      8262      8263      8259      8265      8262      8264
      8259      8265      8262      8266      8260      8259      8265      8262
      8261      8259      8265      8262      8262      8266      8267      8268
      8262      8266      8267      8269      8262      8266      8267      8270
      8263      8262      8266      8267      8264      8262      8266      8267
      8265      8262      8266      8267      8266      8267      8270      8271
      8266      8267      8270      8272      8266      8267      8270      8278
      8267      8270      8272      8273      8267      8270      8278      8279
      8267      8270      8278      8280      8267      8270      8278      8281
      8268      8267      8270      8271      8268      8267      8270      8272
      8268      8267      8270      8278      8269      8267      8270      8271
      8269      8267      8270      8272      8269      8267      8270      8278
      8270      8272      8273      8274      8270      8272      8273      8275
      8270      8278      8281      8282      8271      8270      8272      8273
      8271      8270      8278      8279      8271      8270      8278      8280
      8271      8270      8278      8281      8272      8270      8278      8279
      8272      8270      8278      8280      8272      8270      8278      8281
      8272      8273      8275      8276      8272      8273      8275      8277
      8272      8273      8275      8287      8273      8272      8270      8278
      8273      8275      8287      8288      8273      8275      8287      8289
      8273      8275      8287      8290      8274      8273      8275      8276
      8274      8273      8275      8277      8274      8273      8275      8287
      8275      8287      8290      8291      8275      8287      8290      8292
      8275      8287      8290      8293      8276      8275      8287      8288
      8276      8275      8287      8289      8276      8275      8287      8290
      8277      8275      8287      8288      8277      8275      8287      8289
      8277      8275      8287      8290      8278      8281      8282      8283
      8278      8281      8282      8284      8279      8278      8281      8282
      8280      8278      8281      8282      8281      8282      8284      8285
      8281      8282      8284      8286      8281      8282      8284      8334
      8282      8284      8334      8335      8282      8284      8334      8336
      8282      8284      8334      8337      8283      8282      8284      8285
      8283      8282      8284      8286      8283      8282      8284      8334
      8284      8334      8337      8338      8284      8334      8337      8339
      8284      8334      8337      8340      8285      8284      8334      8335
      8285      8284      8334      8336      8285      8284      8334      8337
      8286      8284      8334      8335      8286      8284      8334      8336
      8286      8284      8334      8337      8287      8290      8293      8294
      8287      8290      8293      8295      8287      8290      8293      8296
      8288      8287      8290      8291      8288      8287      8290      8292
      8288      8287      8290      8293      8289      8287      8290      8291
      8289      8287      8290      8292      8289      8287      8290      8293
      8290      8293      8296      8297      8290      8293      8296      8298
      8290      8293      8296      8299      8291      8290      8293      8294
      8291      8290      8293      8295      8291      8290      8293      8296
      8292      8290      8293      8294      8292      8290      8293      8295
      8292      8290      8293      8296      8293      8296      8299      8300
      8293      8296      8299      8301      8293      8296      8299      8302
      8294      8293      8296      8297      8294      8293      8296      8298
      8294      8293      8296      8299      8295      8293      8296      8297
      8295      8293      8296      8298      8295      8293      8296      8299
      8296      8299      8302      8303      8296      8299      8302      8304
      8296      8299      8302      8305      8297      8296      8299      8300
      8297      8296      8299      8301      8297      8296      8299      8302
      8298      8296      8299      8300      8298      8296      8299      8301
      8298      8296      8299      8302      8299      8302      8305      8306
      8299      8302      8305      8307      8300      8299      8302      8303
      8300      8299      8302      8304      8300      8299      8302      8305
      8301      8299      8302      8303      8301      8299      8302      8304
      8301      8299      8302      8305      8302      8305      8307      8308
      8302      8305      8307      8309      8303      8302      8305      8306
      8303      8302      8305      8307      8304      8302      8305      8306
      8304      8302      8305      8307      8305      8307      8309      8310
      8305      8307      8309      8311      8305      8307      8309      8312
      8306      8305      8307      8308      8306      8305      8307      8309
      8307      8309      8312      8313      8307      8309      8312      8314
      8307      8309      8312      8315      8308      8307      8309      8310
      8308      8307      8309      8311      8308      8307      8309      8312
      8309      8312      8315      8316      8309      8312      8315      8317
      8309      8312      8315      8318      8310      8309      8312      8313
      8310      8309      8312      8314      8310      8309      8312      8315
      8311      8309      8312      8313      8311      8309      8312      8314
      8311      8309      8312      8315      8312      8315      8318      8319
      8312      8315      8318      8320      8312      8315      8318      8321
      8313      8312      8315      8316      8313      8312      8315      8317
      8313      8312      8315      8318      8314      8312      8315      8316
      8314      8312      8315      8317      8314      8312      8315      8318
      8315      8318      8321      8322      8315      8318      8321      8323
      8315      8318      8321      8324      8316      8315      8318      8319
      8316      8315      8318      8320      8316      8315      8318      8321
      8317      8315      8318      8319      8317      8315      8318      8320
      8317      8315      8318      8321      8318      8321      8324      8325
      8318      8321      8324      8326      8318      8321      8324      8327
      8319      8318      8321      8322      8319      8318      8321      8323
      8319      8318      8321      8324      8320      8318      8321      8322
      8320      8318      8321      8323      8320      8318      8321      8324
      8321      8324      8327      8328      8321      8324      8327      8329
      8321      8324      8327      8330      8322      8321      8324      8325
      8322      8321      8324      8326      8322      8321      8324      8327
      8323      8321      8324      8325      8323      8321      8324      8326
      8323      8321      8324      8327      8324      8327      8330      8331
      8324      8327      8330      8332      8324      8327      8330      8333
      8325      8324      8327      8328      8325      8324      8327      8329
      8325      8324      8327      8330      8326      8324      8327      8328
      8326      8324      8327      8329      8326      8324      8327      8330
      8328      8327      8330      8331      8328      8327      8330      8332
      8328      8327      8330      8333      8329      8327      8330      8331
      8329      8327      8330      8332      8329      8327      8330      8333
      8334      8337      8340      8341      8334      8337      8340      8342
      8334      8337      8340      8343      8335      8334      8337      8338
      8335      8334      8337      8339      8335      8334      8337      8340
      8336      8334      8337      8338      8336      8334      8337      8339
      8336      8334      8337      8340      8337      8340      8343      8344
      8337      8340      8343      8345      8337      8340      8343      8346
      8338      8337      8340      8341      8338      8337      8340      8342
      8338      8337      8340      8343      8339      8337      8340      8341
      8339      8337      8340      8342      8339      8337      8340      8343
      8340      8343      8346      8347      8340      8343      8346      8348
      8340      8343      8346      8349      8341      8340      8343      8344
      8341      8340      8343      8345      8341      8340      8343      8346
      8342      8340      8343      8344      8342      8340      8343      8345
      8342      8340      8343      8346      8343      8346      8349      8350
      8343      8346      8349      8351      8343      8346      8349      8352
      8344      8343      8346      8347      8344      8343      8346      8348
      8344      8343      8346      8349      8345      8343      8346      8347
      8345      8343      8346      8348      8345      8343      8346      8349
      8346      8349      8352      8353      8346      8349      8352      8354
      8346      8349      8352      8355      8347      8346      8349      8350
      8347      8346      8349      8351      8347      8346      8349      8352
      8348      8346      8349      8350      8348      8346      8349      8351
      8348      8346      8349      8352      8349      8352      8355      8356
      8349      8352      8355      8357      8349      8352      8355      8358
      8350      8349      8352      8353      8350      8349      8352      8354
      8350      8349      8352      8355      8351      8349      8352      8353
      8351      8349      8352      8354      8351      8349      8352      8355
      8352      8355      8358      8359      8352      8355      8358      8360
      8352      8355      8358      8361      8353      8352      8355      8356
      8353      8352      8355      8357      8353      8352      8355      8358
      8354      8352      8355      8356      8354      8352      8355      8357
      8354      8352      8355      8358      8355      8358      8361      8362
      8355      8358      8361      8363      8355      8358      8361      8364
      8356      8355      8358      8359      8356      8355      8358      8360
      8356      8355      8358      8361      8357      8355      8358      8359
      8357      8355      8358      8360      8357      8355      8358      8361
      8358      8361      8364      8365      8358      8361      8364      8366
      8358      8361      8364      8367      8359      8358      8361      8362
      8359      8358      8361      8363      8359      8358      8361      8364
      8360      8358      8361      8362      8360      8358      8361      8363
      8360      8358      8361      8364      8361      8364      8367      8368
      8361      8364      8367      8369      8361      8364      8367      8370
      8362      8361      8364      8365      8362      8361      8364      8366
      8362      8361      8364      8367      8363      8361      8364      8365
      8363      8361      8364      8366      8363      8361      8364      8367
      8364      8367      8370      8371      8364      8367      8370      8372
      8364      8367      8370      8373      8365      8364      8367      8368
      8365      8364      8367      8369      8365      8364      8367      8370
      8366      8364      8367      8368      8366      8364      8367      8369
      8366      8364      8367      8370      8367      8370      8373      8374
      8367      8370      8373      8375      8367      8370      8373      8376
      8368      8367      8370      8371      8368      8367      8370      8372
      8368      8367      8370      8373      8369      8367      8370      8371
      8369      8367      8370      8372      8369      8367      8370      8373
      8371      8370      8373      8374      8371      8370      8373      8375
      8371      8370      8373      8376      8372      8370      8373      8374
      8372      8370      8373      8375      8372      8370      8373      8376
      8377      8378      8393      8394      8377      8378      8393      8395
      8377      8378      8393      8399      8378      8377      8381      8382
      8378      8377      8381      8383      8378      8377      8381      8384
      8378      8377      8385      8386      8378      8377      8385      8387
      8378      8377      8385      8388      8378      8377      8389      8390
      8378      8377      8389      8391      8378      8377      8389      8392
      8378      8393      8399      8396      8379      8378      8377      8381
      8379      8378      8377      8385      8379      8378      8377      8389
      8379      8378      8393      8394      8379      8378      8393      8395
      8379      8378      8393      8399      8380      8378      8377      8381
      8380      8378      8377      8385      8380      8378      8377      8389
      8380      8378      8393      8394      8380      8378      8393      8395
      8380      8378      8393      8399      8381      8377      8378      8393
      8381      8377      8385      8386      8381      8377      8385      8387
      8381      8377      8385      8388      8381      8377      8389      8390
      8381      8377      8389      8391      8381      8377      8389      8392
      8382      8381      8377      8385      8382      8381      8377      8389
      8383      8381      8377      8385      8383      8381      8377      8389
      8384      8381      8377      8385      8384      8381      8377      8389
      8385      8377      8378      8393      8385      8377      8389      8390
      8385      8377      8389      8391      8385      8377      8389      8392
      8386      8385      8377      8389      8387      8385      8377      8389
      8388      8385      8377      8389      8389      8377      8378      8393
      8393      8399      8396      8397      8393      8399      8396      8398
      8393      8399      8396      8400      8394      8393      8399      8396
      8395      8393      8399      8396      8396      8400      8401      8402
      8396      8400      8401      8403      8396      8400      8401      8404
      8397      8396      8400      8401      8398      8396      8400      8401
      8399      8396      8400      8401      8400      8401      8404      8405
      8400      8401      8404      8406      8400      8401      8404      8412
      8401      8404      8406      8407      8401      8404      8412      8413
      8401      8404      8412      8414      8401      8404      8412      8415
      8402      8401      8404      8405      8402      8401      8404      8406
      8402      8401      8404      8412      8403      8401      8404      8405
      8403      8401      8404      8406      8403      8401      8404      8412
      8404      8406      8407      8408      8404      8406      8407      8409
      8404      8412      8415      8416      8405      8404      8406      8407
      8405      8404      8412      8413      8405      8404      8412      8414
      8405      8404      8412      8415      8406      8404      8412      8413
      8406      8404      8412      8414      8406      8404      8412      8415
      8406      8407      8409      8410      8406      8407      8409      8411
      8406      8407      8409      8421      8407      8406      8404      8412
      8407      8409      8421      8422      8407      8409      8421      8423
      8407      8409      8421      8424      8408      8407      8409      8410
      8408      8407      8409      8411      8408      8407      8409      8421
      8409      8421      8424      8425      8409      8421      8424      8426
      8409      8421      8424      8427      8410      8409      8421      8422
      8410      8409      8421      8423      8410      8409      8421      8424
      8411      8409      8421      8422      8411      8409      8421      8423
      8411      8409      8421      8424      8412      8415      8416      8417
      8412      8415      8416      8418      8413      8412      8415      8416
      8414      8412      8415      8416      8415      8416      8418      8419
      8415      8416      8418      8420      8415      8416      8418      8468
      8416      8418      8468      8469      8416      8418      8468      8470
      8416      8418      8468      8471      8417      8416      8418      8419
      8417      8416      8418      8420      8417      8416      8418      8468
      8418      8468      8471      8472      8418      8468      8471      8473
      8418      8468      8471      8474      8419      8418      8468      8469
      8419      8418      8468      8470      8419      8418      8468      8471
      8420      8418      8468      8469      8420      8418      8468      8470
      8420      8418      8468      8471      8421      8424      8427      8428
      8421      8424      8427      8429      8421      8424      8427      8430
      8422      8421      8424      8425      8422      8421      8424      8426
      8422      8421      8424      8427      8423      8421      8424      8425
      8423      8421      8424      8426      8423      8421      8424      8427
      8424      8427      8430      8431      8424      8427      8430      8432
      8424      8427      8430      8433      8425      8424      8427      8428
      8425      8424      8427      8429      8425      8424      8427      8430
      8426      8424      8427      8428      8426      8424      8427      8429
      8426      8424      8427      8430      8427      8430      8433      8434
      8427      8430      8433      8435      8427      8430      8433      8436
      8428      8427      8430      8431      8428      8427      8430      8432
      8428      8427      8430      8433      8429      8427      8430      8431
      8429      8427      8430      8432      8429      8427      8430      8433
      8430      8433      8436      8437      8430      8433      8436      8438
      8430      8433      8436      8439      8431      8430      8433      8434
      8431      8430      8433      8435      8431      8430      8433      8436
      8432      8430      8433      8434      8432      8430      8433      8435
      8432      8430      8433      8436      8433      8436      8439      8440
      8433      8436      8439      8441      8434      8433      8436      8437
      8434      8433      8436      8438      8434      8433      8436      8439
      8435      8433      8436      8437      8435      8433      8436      8438
      8435      8433      8436      8439      8436      8439      8441      8442
      8436      8439      8441      8443      8437      8436      8439      8440
      8437      8436      8439      8441      8438      8436      8439      8440
      8438      8436      8439      8441      8439      8441      8443      8444
      8439      8441      8443      8445      8439      8441      8443      8446
      8440      8439      8441      8442      8440      8439      8441      8443
      8441      8443      8446      8447      8441      8443      8446      8448
      8441      8443      8446      8449      8442      8441      8443      8444
      8442      8441      8443      8445      8442      8441      8443      8446
      8443      8446      8449      8450      8443      8446      8449      8451
      8443      8446      8449      8452      8444      8443      8446      8447
      8444      8443      8446      8448      8444      8443      8446      8449
      8445      8443      8446      8447      8445      8443      8446      8448
      8445      8443      8446      8449      8446      8449      8452      8453
      8446      8449      8452      8454      8446      8449      8452      8455
      8447      8446      8449      8450      8447      8446      8449      8451
      8447      8446      8449      8452      8448      8446      8449      8450
      8448      8446      8449      8451      8448      8446      8449      8452
      8449      8452      8455      8456      8449      8452      8455      8457
      8449      8452      8455      8458      8450      8449      8452      8453
      8450      8449      8452      8454      8450      8449      8452      8455
      8451      8449      8452      8453      8451      8449      8452      8454
      8451      8449      8452      8455      8452      8455      8458      8459
      8452      8455      8458      8460      8452      8455      8458      8461
      8453      8452      8455      8456      8453      8452      8455      8457
      8453      8452      8455      8458      8454      8452      8455      8456
      8454      8452      8455      8457      8454      8452      8455      8458
      8455      8458      8461      8462      8455      8458      8461      8463
      8455      8458      8461      8464      8456      8455      8458      8459
      8456      8455      8458      8460      8456      8455      8458      8461
      8457      8455      8458      8459      8457      8455      8458      8460
      8457      8455      8458      8461      8458      8461      8464      8465
      8458      8461      8464      8466      8458      8461      8464      8467
      8459      8458      8461      8462      8459      8458      8461      8463
      8459      8458      8461      8464      8460      8458      8461      8462
      8460      8458      8461      8463      8460      8458      8461      8464
      8462      8461      8464      8465      8462      8461      8464      8466
      8462      8461      8464      8467      8463      8461      8464      8465
      8463      8461      8464      8466      8463      8461      8464      8467
      8468      8471      8474      8475      8468      8471      8474      8476
      8468      8471      8474      8477      8469      8468      8471      8472
      8469      8468      8471      8473      8469      8468      8471      8474
      8470      8468      8471      8472      8470      8468      8471      8473
      8470      8468      8471      8474      8471      8474      8477      8478
      8471      8474      8477      8479      8471      8474      8477      8480
      8472      8471      8474      8475      8472      8471      8474      8476
      8472      8471      8474      8477      8473      8471      8474      8475
      8473      8471      8474      8476      8473      8471      8474      8477
      8474      8477      8480      8481      8474      8477      8480      8482
      8474      8477      8480      8483      8475      8474      8477      8478
      8475      8474      8477      8479      8475      8474      8477      8480
      8476      8474      8477      8478      8476      8474      8477      8479
      8476      8474      8477      8480      8477      8480      8483      8484
      8477      8480      8483      8485      8477      8480      8483      8486
      8478      8477      8480      8481      8478      8477      8480      8482
      8478      8477      8480      8483      8479      8477      8480      8481
      8479      8477      8480      8482      8479      8477      8480      8483
      8480      8483      8486      8487      8480      8483      8486      8488
      8480      8483      8486      8489      8481      8480      8483      8484
      8481      8480      8483      8485      8481      8480      8483      8486
      8482      8480      8483      8484      8482      8480      8483      8485
      8482      8480      8483      8486      8483      8486      8489      8490
      8483      8486      8489      8491      8483      8486      8489      8492
      8484      8483      8486      8487      8484      8483      8486      8488
      8484      8483      8486      8489      8485      8483      8486      8487
      8485      8483      8486      8488      8485      8483      8486      8489
      8486      8489      8492      8493      8486      8489      8492      8494
      8486      8489      8492      8495      8487      8486      8489      8490
      8487      8486      8489      8491      8487      8486      8489      8492
      8488      8486      8489      8490      8488      8486      8489      8491
      8488      8486      8489      8492      8489      8492      8495      8496
      8489      8492      8495      8497      8489      8492      8495      8498
      8490      8489      8492      8493      8490      8489      8492      8494
      8490      8489      8492      8495      8491      8489      8492      8493
      8491      8489      8492      8494      8491      8489      8492      8495
      8492      8495      8498      8499      8492      8495      8498      8500
      8492      8495      8498      8501      8493      8492      8495      8496
      8493      8492      8495      8497      8493      8492      8495      8498
      8494      8492      8495      8496      8494      8492      8495      8497
      8494      8492      8495      8498      8495      8498      8501      8502
      8495      8498      8501      8503      8495      8498      8501      8504
      8496      8495      8498      8499      8496      8495      8498      8500
      8496      8495      8498      8501      8497      8495      8498      8499
      8497      8495      8498      8500      8497      8495      8498      8501
      8498      8501      8504      8505      8498      8501      8504      8506
      8498      8501      8504      8507      8499      8498      8501      8502
      8499      8498      8501      8503      8499      8498      8501      8504
      8500      8498      8501      8502      8500      8498      8501      8503
      8500      8498      8501      8504      8501      8504      8507      8508
      8501      8504      8507      8509      8501      8504      8507      8510
      8502      8501      8504      8505      8502      8501      8504      8506
      8502      8501      8504      8507      8503      8501      8504      8505
      8503      8501      8504      8506      8503      8501      8504      8507
      8505      8504      8507      8508      8505      8504      8507      8509
      8505      8504      8507      8510      8506      8504      8507      8508
      8506      8504      8507      8509      8506      8504      8507      8510
      8511      8512      8527      8528      8511      8512      8527      8529
      8511      8512      8527      8533      8512      8511      8515      8516
      8512      8511      8515      8517      8512      8511      8515      8518
      8512      8511      8519      8520      8512      8511      8519      8521
      8512      8511      8519      8522      8512      8511      8523      8524
      8512      8511      8523      8525      8512      8511      8523      8526
      8512      8527      8533      8530      8513      8512      8511      8515
      8513      8512      8511      8519      8513      8512      8511      8523
      8513      8512      8527      8528      8513      8512      8527      8529
      8513      8512      8527      8533      8514      8512      8511      8515
      8514      8512      8511      8519      8514      8512      8511      8523
      8514      8512      8527      8528      8514      8512      8527      8529
      8514      8512      8527      8533      8515      8511      8512      8527
      8515      8511      8519      8520      8515      8511      8519      8521
      8515      8511      8519      8522      8515      8511      8523      8524
      8515      8511      8523      8525      8515      8511      8523      8526
      8516      8515      8511      8519      8516      8515      8511      8523
      8517      8515      8511      8519      8517      8515      8511      8523
      8518      8515      8511      8519      8518      8515      8511      8523
      8519      8511      8512      8527      8519      8511      8523      8524
      8519      8511      8523      8525      8519      8511      8523      8526
      8520      8519      8511      8523      8521      8519      8511      8523
      8522      8519      8511      8523      8523      8511      8512      8527
      8527      8533      8530      8531      8527      8533      8530      8532
      8527      8533      8530      8534      8528      8527      8533      8530
      8529      8527      8533      8530      8530      8534      8535      8536
      8530      8534      8535      8537      8530      8534      8535      8538
      8531      8530      8534      8535      8532      8530      8534      8535
      8533      8530      8534      8535      8534      8535      8538      8539
      8534      8535      8538      8540      8534      8535      8538      8546
      8535      8538      8540      8541      8535      8538      8546      8547
      8535      8538      8546      8548      8535      8538      8546      8549
      8536      8535      8538      8539      8536      8535      8538      8540
      8536      8535      8538      8546      8537      8535      8538      8539
      8537      8535      8538      8540      8537      8535      8538      8546
      8538      8540      8541      8542      8538      8540      8541      8543
      8538      8546      8549      8550      8539      8538      8540      8541
      8539      8538      8546      8547      8539      8538      8546      8548
      8539      8538      8546      8549      8540      8538      8546      8547
      8540      8538      8546      8548      8540      8538      8546      8549
      8540      8541      8543      8544      8540      8541      8543      8545
      8540      8541      8543      8555      8541      8540      8538      8546
      8541      8543      8555      8556      8541      8543      8555      8557
      8541      8543      8555      8558      8542      8541      8543      8544
      8542      8541      8543      8545      8542      8541      8543      8555
      8543      8555      8558      8559      8543      8555      8558      8560
      8543      8555      8558      8561      8544      8543      8555      8556
      8544      8543      8555      8557      8544      8543      8555      8558
      8545      8543      8555      8556      8545      8543      8555      8557
      8545      8543      8555      8558      8546      8549      8550      8551
      8546      8549      8550      8552      8547      8546      8549      8550
      8548      8546      8549      8550      8549      8550      8552      8553
      8549      8550      8552      8554      8549      8550      8552      8602
      8550      8552      8602      8603      8550      8552      8602      8604
      8550      8552      8602      8605      8551      8550      8552      8553
      8551      8550      8552      8554      8551      8550      8552      8602
      8552      8602      8605      8606      8552      8602      8605      8607
      8552      8602      8605      8608      8553      8552      8602      8603
      8553      8552      8602      8604      8553      8552      8602      8605
      8554      8552      8602      8603      8554      8552      8602      8604
      8554      8552      8602      8605      8555      8558      8561      8562
      8555      8558      8561      8563      8555      8558      8561      8564
      8556      8555      8558      8559      8556      8555      8558      8560
      8556      8555      8558      8561      8557      8555      8558      8559
      8557      8555      8558      8560      8557      8555      8558      8561
      8558      8561      8564      8565      8558      8561      8564      8566
      8558      8561      8564      8567      8559      8558      8561      8562
      8559      8558      8561      8563      8559      8558      8561      8564
      8560      8558      8561      8562      8560      8558      8561      8563
      8560      8558      8561      8564      8561      8564      8567      8568
      8561      8564      8567      8569      8561      8564      8567      8570
      8562      8561      8564      8565      8562      8561      8564      8566
      8562      8561      8564      8567      8563      8561      8564      8565
      8563      8561      8564      8566      8563      8561      8564      8567
      8564      8567      8570      8571      8564      8567      8570      8572
      8564      8567      8570      8573      8565      8564      8567      8568
      8565      8564      8567      8569      8565      8564      8567      8570
      8566      8564      8567      8568      8566      8564      8567      8569
      8566      8564      8567      8570      8567      8570      8573      8574
      8567      8570      8573      8575      8568      8567      8570      8571
      8568      8567      8570      8572      8568      8567      8570      8573
      8569      8567      8570      8571      8569      8567      8570      8572
      8569      8567      8570      8573      8570      8573      8575      8576
      8570      8573      8575      8577      8571      8570      8573      8574
      8571      8570      8573      8575      8572      8570      8573      8574
      8572      8570      8573      8575      8573      8575      8577      8578
      8573      8575      8577      8579      8573      8575      8577      8580
      8574      8573      8575      8576      8574      8573      8575      8577
      8575      8577      8580      8581      8575      8577      8580      8582
      8575      8577      8580      8583      8576      8575      8577      8578
      8576      8575      8577      8579      8576      8575      8577      8580
      8577      8580      8583      8584      8577      8580      8583      8585
      8577      8580      8583      8586      8578      8577      8580      8581
      8578      8577      8580      8582      8578      8577      8580      8583
      8579      8577      8580      8581      8579      8577      8580      8582
      8579      8577      8580      8583      8580      8583      8586      8587
      8580      8583      8586      8588      8580      8583      8586      8589
      8581      8580      8583      8584      8581      8580      8583      8585
      8581      8580      8583      8586      8582      8580      8583      8584
      8582      8580      8583      8585      8582      8580      8583      8586
      8583      8586      8589      8590      8583      8586      8589      8591
      8583      8586      8589      8592      8584      8583      8586      8587
      8584      8583      8586      8588      8584      8583      8586      8589
      8585      8583      8586      8587      8585      8583      8586      8588
      8585      8583      8586      8589      8586      8589      8592      8593
      8586      8589      8592      8594      8586      8589      8592      8595
      8587      8586      8589      8590      8587      8586      8589      8591
      8587      8586      8589      8592      8588      8586      8589      8590
      8588      8586      8589      8591      8588      8586      8589      8592
      8589      8592      8595      8596      8589      8592      8595      8597
      8589      8592      8595      8598      8590      8589      8592      8593
      8590      8589      8592      8594      8590      8589      8592      8595
      8591      8589      8592      8593      8591      8589      8592      8594
      8591      8589      8592      8595      8592      8595      8598      8599
      8592      8595      8598      8600      8592      8595      8598      8601
      8593      8592      8595      8596      8593      8592      8595      8597
      8593      8592      8595      8598      8594      8592      8595      8596
      8594      8592      8595      8597      8594      8592      8595      8598
      8596      8595      8598      8599      8596      8595      8598      8600
      8596      8595      8598      8601      8597      8595      8598      8599
      8597      8595      8598      8600      8597      8595      8598      8601
      8602      8605      8608      8609      8602      8605      8608      8610
      8602      8605      8608      8611      8603      8602      8605      8606
      8603      8602      8605      8607      8603      8602      8605      8608
      8604      8602      8605      8606      8604      8602      8605      8607
      8604      8602      8605      8608      8605      8608      8611      8612
      8605      8608      8611      8613      8605      8608      8611      8614
      8606      8605      8608      8609      8606      8605      8608      8610
      8606      8605      8608      8611      8607      8605      8608      8609
      8607      8605      8608      8610      8607      8605      8608      8611
      8608      8611      8614      8615      8608      8611      8614      8616
      8608      8611      8614      8617      8609      8608      8611      8612
      8609      8608      8611      8613      8609      8608      8611      8614
      8610      8608      8611      8612      8610      8608      8611      8613
      8610      8608      8611      8614      8611      8614      8617      8618
      8611      8614      8617      8619      8611      8614      8617      8620
      8612      8611      8614      8615      8612      8611      8614      8616
      8612      8611      8614      8617      8613      8611      8614      8615
      8613      8611      8614      8616      8613      8611      8614      8617
      8614      8617      8620      8621      8614      8617      8620      8622
      8614      8617      8620      8623      8615      8614      8617      8618
      8615      8614      8617      8619      8615      8614      8617      8620
      8616      8614      8617      8618      8616      8614      8617      8619
      8616      8614      8617      8620      8617      8620      8623      8624
      8617      8620      8623      8625      8617      8620      8623      8626
      8618      8617      8620      8621      8618      8617      8620      8622
      8618      8617      8620      8623      8619      8617      8620      8621
      8619      8617      8620      8622      8619      8617      8620      8623
      8620      8623      8626      8627      8620      8623      8626      8628
      8620      8623      8626      8629      8621      8620      8623      8624
      8621      8620      8623      8625      8621      8620      8623      8626
      8622      8620      8623      8624      8622      8620      8623      8625
      8622      8620      8623      8626      8623      8626      8629      8630
      8623      8626      8629      8631      8623      8626      8629      8632
      8624      8623      8626      8627      8624      8623      8626      8628
      8624      8623      8626      8629      8625      8623      8626      8627
      8625      8623      8626      8628      8625      8623      8626      8629
      8626      8629      8632      8633      8626      8629      8632      8634
      8626      8629      8632      8635      8627      8626      8629      8630
      8627      8626      8629      8631      8627      8626      8629      8632
      8628      8626      8629      8630      8628      8626      8629      8631
      8628      8626      8629      8632      8629      8632      8635      8636
      8629      8632      8635      8637      8629      8632      8635      8638
      8630      8629      8632      8633      8630      8629      8632      8634
      8630      8629      8632      8635      8631      8629      8632      8633
      8631      8629      8632      8634      8631      8629      8632      8635
      8632      8635      8638      8639      8632      8635      8638      8640
      8632      8635      8638      8641      8633      8632      8635      8636
      8633      8632      8635      8637      8633      8632      8635      8638
      8634      8632      8635      8636      8634      8632      8635      8637
      8634      8632      8635      8638      8635      8638      8641      8642
      8635      8638      8641      8643      8635      8638      8641      8644
      8636      8635      8638      8639      8636      8635      8638      8640
      8636      8635      8638      8641      8637      8635      8638      8639
      8637      8635      8638      8640      8637      8635      8638      8641
      8639      8638      8641      8642      8639      8638      8641      8643
      8639      8638      8641      8644      8640      8638      8641      8642
      8640      8638      8641      8643      8640      8638      8641      8644
      8645      8646      8661      8662      8645      8646      8661      8663
      8645      8646      8661      8667      8646      8645      8649      8650
      8646      8645      8649      8651      8646      8645      8649      8652
      8646      8645      8653      8654      8646      8645      8653      8655
      8646      8645      8653      8656      8646      8645      8657      8658
      8646      8645      8657      8659      8646      8645      8657      8660
      8646      8661      8667      8664      8647      8646      8645      8649
      8647      8646      8645      8653      8647      8646      8645      8657
      8647      8646      8661      8662      8647      8646      8661      8663
      8647      8646      8661      8667      8648      8646      8645      8649
      8648      8646      8645      8653      8648      8646      8645      8657
      8648      8646      8661      8662      8648      8646      8661      8663
      8648      8646      8661      8667      8649      8645      8646      8661
      8649      8645      8653      8654      8649      8645      8653      8655
      8649      8645      8653      8656      8649      8645      8657      8658
      8649      8645      8657      8659      8649      8645      8657      8660
      8650      8649      8645      8653      8650      8649      8645      8657
      8651      8649      8645      8653      8651      8649      8645      8657
      8652      8649      8645      8653      8652      8649      8645      8657
      8653      8645      8646      8661      8653      8645      8657      8658
      8653      8645      8657      8659      8653      8645      8657      8660
      8654      8653      8645      8657      8655      8653      8645      8657
      8656      8653      8645      8657      8657      8645      8646      8661
      8661      8667      8664      8665      8661      8667      8664      8666
      8661      8667      8664      8668      8662      8661      8667      8664
      8663      8661      8667      8664      8664      8668      8669      8670
      8664      8668      8669      8671      8664      8668      8669      8672
      8665      8664      8668      8669      8666      8664      8668      8669
      8667      8664      8668      8669      8668      8669      8672      8673
      8668      8669      8672      8674      8668      8669      8672      8680
      8669      8672      8674      8675      8669      8672      8680      8681
      8669      8672      8680      8682      8669      8672      8680      8683
      8670      8669      8672      8673      8670      8669      8672      8674
      8670      8669      8672      8680      8671      8669      8672      8673
      8671      8669      8672      8674      8671      8669      8672      8680
      8672      8674      8675      8676      8672      8674      8675      8677
      8672      8680      8683      8684      8673      8672      8674      8675
      8673      8672      8680      8681      8673      8672      8680      8682
      8673      8672      8680      8683      8674      8672      8680      8681
      8674      8672      8680      8682      8674      8672      8680      8683
      8674      8675      8677      8678      8674      8675      8677      8679
      8674      8675      8677      8689      8675      8674      8672      8680
      8675      8677      8689      8690      8675      8677      8689      8691
      8675      8677      8689      8692      8676      8675      8677      8678
      8676      8675      8677      8679      8676      8675      8677      8689
      8677      8689      8692      8693      8677      8689      8692      8694
      8677      8689      8692      8695      8678      8677      8689      8690
      8678      8677      8689      8691      8678      8677      8689      8692
      8679      8677      8689      8690      8679      8677      8689      8691
      8679      8677      8689      8692      8680      8683      8684      8685
      8680      8683      8684      8686      8681      8680      8683      8684
      8682      8680      8683      8684      8683      8684      8686      8687
      8683      8684      8686      8688      8683      8684      8686      8736
      8684      8686      8736      8737      8684      8686      8736      8738
      8684      8686      8736      8739      8685      8684      8686      8687
      8685      8684      8686      8688      8685      8684      8686      8736
      8686      8736      8739      8740      8686      8736      8739      8741
      8686      8736      8739      8742      8687      8686      8736      8737
      8687      8686      8736      8738      8687      8686      8736      8739
      8688      8686      8736      8737      8688      8686      8736      8738
      8688      8686      8736      8739      8689      8692      8695      8696
      8689      8692      8695      8697      8689      8692      8695      8698
      8690      8689      8692      8693      8690      8689      8692      8694
      8690      8689      8692      8695      8691      8689      8692      8693
      8691      8689      8692      8694      8691      8689      8692      8695
      8692      8695      8698      8699      8692      8695      8698      8700
      8692      8695      8698      8701      8693      8692      8695      8696
      8693      8692      8695      8697      8693      8692      8695      8698
      8694      8692      8695      8696      8694      8692      8695      8697
      8694      8692      8695      8698      8695      8698      8701      8702
      8695      8698      8701      8703      8695      8698      8701      8704
      8696      8695      8698      8699      8696      8695      8698      8700
      8696      8695      8698      8701      8697      8695      8698      8699
      8697      8695      8698      8700      8697      8695      8698      8701
      8698      8701      8704      8705      8698      8701      8704      8706
      8698      8701      8704      8707      8699      8698      8701      8702
      8699      8698      8701      8703      8699      8698      8701      8704
      8700      8698      8701      8702      8700      8698      8701      8703
      8700      8698      8701      8704      8701      8704      8707      8708
      8701      8704      8707      8709      8702      8701      8704      8705
      8702      8701      8704      8706      8702      8701      8704      8707
      8703      8701      8704      8705      8703      8701      8704      8706
      8703      8701      8704      8707      8704      8707      8709      8710
      8704      8707      8709      8711      8705      8704      8707      8708
      8705      8704      8707      8709      8706      8704      8707      8708
      8706      8704      8707      8709      8707      8709      8711      8712
      8707      8709      8711      8713      8707      8709      8711      8714
      8708      8707      8709      8710      8708      8707      8709      8711
      8709      8711      8714      8715      8709      8711      8714      8716
      8709      8711      8714      8717      8710      8709      8711      8712
      8710      8709      8711      8713      8710      8709      8711      8714
      8711      8714      8717      8718      8711      8714      8717      8719
      8711      8714      8717      8720      8712      8711      8714      8715
      8712      8711      8714      8716      8712      8711      8714      8717
      8713      8711      8714      8715      8713      8711      8714      8716
      8713      8711      8714      8717      8714      8717      8720      8721
      8714      8717      8720      8722      8714      8717      8720      8723
      8715      8714      8717      8718      8715      8714      8717      8719
      8715      8714      8717      8720      8716      8714      8717      8718
      8716      8714      8717      8719      8716      8714      8717      8720
      8717      8720      8723      8724      8717      8720      8723      8725
      8717      8720      8723      8726      8718      8717      8720      8721
      8718      8717      8720      8722      8718      8717      8720      8723
      8719      8717      8720      8721      8719      8717      8720      8722
      8719      8717      8720      8723      8720      8723      8726      8727
      8720      8723      8726      8728      8720      8723      8726      8729
      8721      8720      8723      8724      8721      8720      8723      8725
      8721      8720      8723      8726      8722      8720      8723      8724
      8722      8720      8723      8725      8722      8720      8723      8726
      8723      8726      8729      8730      8723      8726      8729      8731
      8723      8726      8729      8732      8724      8723      8726      8727
      8724      8723      8726      8728      8724      8723      8726      8729
      8725      8723      8726      8727      8725      8723      8726      8728
      8725      8723      8726      8729      8726      8729      8732      8733
      8726      8729      8732      8734      8726      8729      8732      8735
      8727      8726      8729      8730      8727      8726      8729      8731
      8727      8726      8729      8732      8728      8726      8729      8730
      8728      8726      8729      8731      8728      8726      8729      8732
      8730      8729      8732      8733      8730      8729      8732      8734
      8730      8729      8732      8735      8731      8729      8732      8733
      8731      8729      8732      8734      8731      8729      8732      8735
      8736      8739      8742      8743      8736      8739      8742      8744
      8736      8739      8742      8745      8737      8736      8739      8740
      8737      8736      8739      8741      8737      8736      8739      8742
      8738      8736      8739      8740      8738      8736      8739      8741
      8738      8736      8739      8742      8739      8742      8745      8746
      8739      8742      8745      8747      8739      8742      8745      8748
      8740      8739      8742      8743      8740      8739      8742      8744
      8740      8739      8742      8745      8741      8739      8742      8743
      8741      8739      8742      8744      8741      8739      8742      8745
      8742      8745      8748      8749      8742      8745      8748      8750
      8742      8745      8748      8751      8743      8742      8745      8746
      8743      8742      8745      8747      8743      8742      8745      8748
      8744      8742      8745      8746      8744      8742      8745      8747
      8744      8742      8745      8748      8745      8748      8751      8752
      8745      8748      8751      8753      8745      8748      8751      8754
      8746      8745      8748      8749      8746      8745      8748      8750
      8746      8745      8748      8751      8747      8745      8748      8749
      8747      8745      8748      8750      8747      8745      8748      8751
      8748      8751      8754      8755      8748      8751      8754      8756
      8748      8751      8754      8757      8749      8748      8751      8752
      8749      8748      8751      8753      8749      8748      8751      8754
      8750      8748      8751      8752      8750      8748      8751      8753
      8750      8748      8751      8754      8751      8754      8757      8758
      8751      8754      8757      8759      8751      8754      8757      8760
      8752      8751      8754      8755      8752      8751      8754      8756
      8752      8751      8754      8757      8753      8751      8754      8755
      8753      8751      8754      8756      8753      8751      8754      8757
      8754      8757      8760      8761      8754      8757      8760      8762
      8754      8757      8760      8763      8755      8754      8757      8758
      8755      8754      8757      8759      8755      8754      8757      8760
      8756      8754      8757      8758      8756      8754      8757      8759
      8756      8754      8757      8760      8757      8760      8763      8764
      8757      8760      8763      8765      8757      8760      8763      8766
      8758      8757      8760      8761      8758      8757      8760      8762
      8758      8757      8760      8763      8759      8757      8760      8761
      8759      8757      8760      8762      8759      8757      8760      8763
      8760      8763      8766      8767      8760      8763      8766      8768
      8760      8763      8766      8769      8761      8760      8763      8764
      8761      8760      8763      8765      8761      8760      8763      8766
      8762      8760      8763      8764      8762      8760      8763      8765
      8762      8760      8763      8766      8763      8766      8769      8770
      8763      8766      8769      8771      8763      8766      8769      8772
      8764      8763      8766      8767      8764      8763      8766      8768
      8764      8763      8766      8769      8765      8763      8766      8767
      8765      8763      8766      8768      8765      8763      8766      8769
      8766      8769      8772      8773      8766      8769      8772      8774
      8766      8769      8772      8775      8767      8766      8769      8770
      8767      8766      8769      8771      8767      8766      8769      8772
      8768      8766      8769      8770      8768      8766      8769      8771
      8768      8766      8769      8772      8769      8772      8775      8776
      8769      8772      8775      8777      8769      8772      8775      8778
      8770      8769      8772      8773      8770      8769      8772      8774
      8770      8769      8772      8775      8771      8769      8772      8773
      8771      8769      8772      8774      8771      8769      8772      8775
      8773      8772      8775      8776      8773      8772      8775      8777
      8773      8772      8775      8778      8774      8772      8775      8776
      8774      8772      8775      8777      8774      8772      8775      8778
      8779      8780      8795      8796      8779      8780      8795      8797
      8779      8780      8795      8801      8780      8779      8783      8784
      8780      8779      8783      8785      8780      8779      8783      8786
      8780      8779      8787      8788      8780      8779      8787      8789
      8780      8779      8787      8790      8780      8779      8791      8792
      8780      8779      8791      8793      8780      8779      8791      8794
      8780      8795      8801      8798      8781      8780      8779      8783
      8781      8780      8779      8787      8781      8780      8779      8791
      8781      8780      8795      8796      8781      8780      8795      8797
      8781      8780      8795      8801      8782      8780      8779      8783
      8782      8780      8779      8787      8782      8780      8779      8791
      8782      8780      8795      8796      8782      8780      8795      8797
      8782      8780      8795      8801      8783      8779      8780      8795
      8783      8779      8787      8788      8783      8779      8787      8789
      8783      8779      8787      8790      8783      8779      8791      8792
      8783      8779      8791      8793      8783      8779      8791      8794
      8784      8783      8779      8787      8784      8783      8779      8791
      8785      8783      8779      8787      8785      8783      8779      8791
      8786      8783      8779      8787      8786      8783      8779      8791
      8787      8779      8780      8795      8787      8779      8791      8792
      8787      8779      8791      8793      8787      8779      8791      8794
      8788      8787      8779      8791      8789      8787      8779      8791
      8790      8787      8779      8791      8791      8779      8780      8795
      8795      8801      8798      8799      8795      8801      8798      8800
      8795      8801      8798      8802      8796      8795      8801      8798
      8797      8795      8801      8798      8798      8802      8803      8804
      8798      8802      8803      8805      8798      8802      8803      8806
      8799      8798      8802      8803      8800      8798      8802      8803
      8801      8798      8802      8803      8802      8803      8806      8807
      8802      8803      8806      8808      8802      8803      8806      8814
      8803      8806      8808      8809      8803      8806      8814      8815
      8803      8806      8814      8816      8803      8806      8814      8817
      8804      8803      8806      8807      8804      8803      8806      8808
      8804      8803      8806      8814      8805      8803      8806      8807
      8805      8803      8806      8808      8805      8803      8806      8814
      8806      8808      8809      8810      8806      8808      8809      8811
      8806      8814      8817      8818      8807      8806      8808      8809
      8807      8806      8814      8815      8807      8806      8814      8816
      8807      8806      8814      8817      8808      8806      8814      8815
      8808      8806      8814      8816      8808      8806      8814      8817
      8808      8809      8811      8812      8808      8809      8811      8813
      8808      8809      8811      8823      8809      8808      8806      8814
      8809      8811      8823      8824      8809      8811      8823      8825
      8809      8811      8823      8826      8810      8809      8811      8812
      8810      8809      8811      8813      8810      8809      8811      8823
      8811      8823      8826      8827      8811      8823      8826      8828
      8811      8823      8826      8829      8812      8811      8823      8824
      8812      8811      8823      8825      8812      8811      8823      8826
      8813      8811      8823      8824      8813      8811      8823      8825
      8813      8811      8823      8826      8814      8817      8818      8819
      8814      8817      8818      8820      8815      8814      8817      8818
      8816      8814      8817      8818      8817      8818      8820      8821
      8817      8818      8820      8822      8817      8818      8820      8870
      8818      8820      8870      8871      8818      8820      8870      8872
      8818      8820      8870      8873      8819      8818      8820      8821
      8819      8818      8820      8822      8819      8818      8820      8870
      8820      8870      8873      8874      8820      8870      8873      8875
      8820      8870      8873      8876      8821      8820      8870      8871
      8821      8820      8870      8872      8821      8820      8870      8873
      8822      8820      8870      8871      8822      8820      8870      8872
      8822      8820      8870      8873      8823      8826      8829      8830
      8823      8826      8829      8831      8823      8826      8829      8832
      8824      8823      8826      8827      8824      8823      8826      8828
      8824      8823      8826      8829      8825      8823      8826      8827
      8825      8823      8826      8828      8825      8823      8826      8829
      8826      8829      8832      8833      8826      8829      8832      8834
      8826      8829      8832      8835      8827      8826      8829      8830
      8827      8826      8829      8831      8827      8826      8829      8832
      8828      8826      8829      8830      8828      8826      8829      8831
      8828      8826      8829      8832      8829      8832      8835      8836
      8829      8832      8835      8837      8829      8832      8835      8838
      8830      8829      8832      8833      8830      8829      8832      8834
      8830      8829      8832      8835      8831      8829      8832      8833
      8831      8829      8832      8834      8831      8829      8832      8835
      8832      8835      8838      8839      8832      8835      8838      8840
      8832      8835      8838      8841      8833      8832      8835      8836
      8833      8832      8835      8837      8833      8832      8835      8838
      8834      8832      8835      8836      8834      8832      8835      8837
      8834      8832      8835      8838      8835      8838      8841      8842
      8835      8838      8841      8843      8836      8835      8838      8839
      8836      8835      8838      8840      8836      8835      8838      8841
      8837      8835      8838      8839      8837      8835      8838      8840
      8837      8835      8838      8841      8838      8841      8843      8844
      8838      8841      8843      8845      8839      8838      8841      8842
      8839      8838      8841      8843      8840      8838      8841      8842
      8840      8838      8841      8843      8841      8843      8845      8846
      8841      8843      8845      8847      8841      8843      8845      8848
      8842      8841      8843      8844      8842      8841      8843      8845
      8843      8845      8848      8849      8843      8845      8848      8850
      8843      8845      8848      8851      8844      8843      8845      8846
      8844      8843      8845      8847      8844      8843      8845      8848
      8845      8848      8851      8852      8845      8848      8851      8853
      8845      8848      8851      8854      8846      8845      8848      8849
      8846      8845      8848      8850      8846      8845      8848      8851
      8847      8845      8848      8849      8847      8845      8848      8850
      8847      8845      8848      8851      8848      8851      8854      8855
      8848      8851      8854      8856      8848      8851      8854      8857
      8849      8848      8851      8852      8849      8848      8851      8853
      8849      8848      8851      8854      8850      8848      8851      8852
      8850      8848      8851      8853      8850      8848      8851      8854
      8851      8854      8857      8858      8851      8854      8857      8859
      8851      8854      8857      8860      8852      8851      8854      8855
      8852      8851      8854      8856      8852      8851      8854      8857
      8853      8851      8854      8855      8853      8851      8854      8856
      8853      8851      8854      8857      8854      8857      8860      8861
      8854      8857      8860      8862      8854      8857      8860      8863
      8855      8854      8857      8858      8855      8854      8857      8859
      8855      8854      8857      8860      8856      8854      8857      8858
      8856      8854      8857      8859      8856      8854      8857      8860
      8857      8860      8863      8864      8857      8860      8863      8865
      8857      8860      8863      8866      8858      8857      8860      8861
      8858      8857      8860      8862      8858      8857      8860      8863
      8859      8857      8860      8861      8859      8857      8860      8862
      8859      8857      8860      8863      8860      8863      8866      8867
      8860      8863      8866      8868      8860      8863      8866      8869
      8861      8860      8863      8864      8861      8860      8863      8865
      8861      8860      8863      8866      8862      8860      8863      8864
      8862      8860      8863      8865      8862      8860      8863      8866
      8864      8863      8866      8867      8864      8863      8866      8868
      8864      8863      8866      8869      8865      8863      8866      8867
      8865      8863      8866      8868      8865      8863      8866      8869
      8870      8873      8876      8877      8870      8873      8876      8878
      8870      8873      8876      8879      8871      8870      8873      8874
      8871      8870      8873      8875      8871      8870      8873      8876
      8872      8870      8873      8874      8872      8870      8873      8875
      8872      8870      8873      8876      8873      8876      8879      8880
      8873      8876      8879      8881      8873      8876      8879      8882
      8874      8873      8876      8877      8874      8873      8876      8878
      8874      8873      8876      8879      8875      8873      8876      8877
      8875      8873      8876      8878      8875      8873      8876      8879
      8876      8879      8882      8883      8876      8879      8882      8884
      8876      8879      8882      8885      8877      8876      8879      8880
      8877      8876      8879      8881      8877      8876      8879      8882
      8878      8876      8879      8880      8878      8876      8879      8881
      8878      8876      8879      8882      8879      8882      8885      8886
      8879      8882      8885      8887      8879      8882      8885      8888
      8880      8879      8882      8883      8880      8879      8882      8884
      8880      8879      8882      8885      8881      8879      8882      8883
      8881      8879      8882      8884      8881      8879      8882      8885
      8882      8885      8888      8889      8882      8885      8888      8890
      8882      8885      8888      8891      8883      8882      8885      8886
      8883      8882      8885      8887      8883      8882      8885      8888
      8884      8882      8885      8886      8884      8882      8885      8887
      8884      8882      8885      8888      8885      8888      8891      8892
      8885      8888      8891      8893      8885      8888      8891      8894
      8886      8885      8888      8889      8886      8885      8888      8890
      8886      8885      8888      8891      8887      8885      8888      8889
      8887      8885      8888      8890      8887      8885      8888      8891
      8888      8891      8894      8895      8888      8891      8894      8896
      8888      8891      8894      8897      8889      8888      8891      8892
      8889      8888      8891      8893      8889      8888      8891      8894
      8890      8888      8891      8892      8890      8888      8891      8893
      8890      8888      8891      8894      8891      8894      8897      8898
      8891      8894      8897      8899      8891      8894      8897      8900
      8892      8891      8894      8895      8892      8891      8894      8896
      8892      8891      8894      8897      8893      8891      8894      8895
      8893      8891      8894      8896      8893      8891      8894      8897
      8894      8897      8900      8901      8894      8897      8900      8902
      8894      8897      8900      8903      8895      8894      8897      8898
      8895      8894      8897      8899      8895      8894      8897      8900
      8896      8894      8897      8898      8896      8894      8897      8899
      8896      8894      8897      8900      8897      8900      8903      8904
      8897      8900      8903      8905      8897      8900      8903      8906
      8898      8897      8900      8901      8898      8897      8900      8902
      8898      8897      8900      8903      8899      8897      8900      8901
      8899      8897      8900      8902      8899      8897      8900      8903
      8900      8903      8906      8907      8900      8903      8906      8908
      8900      8903      8906      8909      8901      8900      8903      8904
      8901      8900      8903      8905      8901      8900      8903      8906
      8902      8900      8903      8904      8902      8900      8903      8905
      8902      8900      8903      8906      8903      8906      8909      8910
      8903      8906      8909      8911      8903      8906      8909      8912
      8904      8903      8906      8907      8904      8903      8906      8908
      8904      8903      8906      8909      8905      8903      8906      8907
      8905      8903      8906      8908      8905      8903      8906      8909
      8907      8906      8909      8910      8907      8906      8909      8911
      8907      8906      8909      8912      8908      8906      8909      8910
      8908      8906      8909      8911      8908      8906      8909      8912
      8913      8914      8929      8930      8913      8914      8929      8931
      8913      8914      8929      8935      8914      8913      8917      8918
      8914      8913      8917      8919      8914      8913      8917      8920
      8914      8913      8921      8922      8914      8913      8921      8923
      8914      8913      8921      8924      8914      8913      8925      8926
      8914      8913      8925      8927      8914      8913      8925      8928
      8914      8929      8935      8932      8915      8914      8913      8917
      8915      8914      8913      8921      8915      8914      8913      8925
      8915      8914      8929      8930      8915      8914      8929      8931
      8915      8914      8929      8935      8916      8914      8913      8917
      8916      8914      8913      8921      8916      8914      8913      8925
      8916      8914      8929      8930      8916      8914      8929      8931
      8916      8914      8929      8935      8917      8913      8914      8929
      8917      8913      8921      8922      8917      8913      8921      8923
      8917      8913      8921      8924      8917      8913      8925      8926
      8917      8913      8925      8927      8917      8913      8925      8928
      8918      8917      8913      8921      8918      8917      8913      8925
      8919      8917      8913      8921      8919      8917      8913      8925
      8920      8917      8913      8921      8920      8917      8913      8925
      8921      8913      8914      8929      8921      8913      8925      8926
      8921      8913      8925      8927      8921      8913      8925      8928
      8922      8921      8913      8925      8923      8921      8913      8925
      8924      8921      8913      8925      8925      8913      8914      8929
      8929      8935      8932      8933      8929      8935      8932      8934
      8929      8935      8932      8936      8930      8929      8935      8932
      8931      8929      8935      8932      8932      8936      8937      8938
      8932      8936      8937      8939      8932      8936      8937      8940
      8933      8932      8936      8937      8934      8932      8936      8937
      8935      8932      8936      8937      8936      8937      8940      8941
      8936      8937      8940      8942      8936      8937      8940      8948
      8937      8940      8942      8943      8937      8940      8948      8949
      8937      8940      8948      8950      8937      8940      8948      8951
      8938      8937      8940      8941      8938      8937      8940      8942
      8938      8937      8940      8948      8939      8937      8940      8941
      8939      8937      8940      8942      8939      8937      8940      8948
      8940      8942      8943      8944      8940      8942      8943      8945
      8940      8948      8951      8952      8941      8940      8942      8943
      8941      8940      8948      8949      8941      8940      8948      8950
      8941      8940      8948      8951      8942      8940      8948      8949
      8942      8940      8948      8950      8942      8940      8948      8951
      8942      8943      8945      8946      8942      8943      8945      8947
      8942      8943      8945      8957      8943      8942      8940      8948
      8943      8945      8957      8958      8943      8945      8957      8959
      8943      8945      8957      8960      8944      8943      8945      8946
      8944      8943      8945      8947      8944      8943      8945      8957
      8945      8957      8960      8961      8945      8957      8960      8962
      8945      8957      8960      8963      8946      8945      8957      8958
      8946      8945      8957      8959      8946      8945      8957      8960
      8947      8945      8957      8958      8947      8945      8957      8959
      8947      8945      8957      8960      8948      8951      8952      8953
      8948      8951      8952      8954      8949      8948      8951      8952
      8950      8948      8951      8952      8951      8952      8954      8955
      8951      8952      8954      8956      8951      8952      8954      9004
      8952      8954      9004      9005      8952      8954      9004      9006
      8952      8954      9004      9007      8953      8952      8954      8955
      8953      8952      8954      8956      8953      8952      8954      9004
      8954      9004      9007      9008      8954      9004      9007      9009
      8954      9004      9007      9010      8955      8954      9004      9005
      8955      8954      9004      9006      8955      8954      9004      9007
      8956      8954      9004      9005      8956      8954      9004      9006
      8956      8954      9004      9007      8957      8960      8963      8964
      8957      8960      8963      8965      8957      8960      8963      8966
      8958      8957      8960      8961      8958      8957      8960      8962
      8958      8957      8960      8963      8959      8957      8960      8961
      8959      8957      8960      8962      8959      8957      8960      8963
      8960      8963      8966      8967      8960      8963      8966      8968
      8960      8963      8966      8969      8961      8960      8963      8964
      8961      8960      8963      8965      8961      8960      8963      8966
      8962      8960      8963      8964      8962      8960      8963      8965
      8962      8960      8963      8966      8963      8966      8969      8970
      8963      8966      8969      8971      8963      8966      8969      8972
      8964      8963      8966      8967      8964      8963      8966      8968
      8964      8963      8966      8969      8965      8963      8966      8967
      8965      8963      8966      8968      8965      8963      8966      8969
      8966      8969      8972      8973      8966      8969      8972      8974
      8966      8969      8972      8975      8967      8966      8969      8970
      8967      8966      8969      8971      8967      8966      8969      8972
      8968      8966      8969      8970      8968      8966      8969      8971
      8968      8966      8969      8972      8969      8972      8975      8976
      8969      8972      8975      8977      8970      8969      8972      8973
      8970      8969      8972      8974      8970      8969      8972      8975
      8971      8969      8972      8973      8971      8969      8972      8974
      8971      8969      8972      8975      8972      8975      8977      8978
      8972      8975      8977      8979      8973      8972      8975      8976
      8973      8972      8975      8977      8974      8972      8975      8976
      8974      8972      8975      8977      8975      8977      8979      8980
      8975      8977      8979      8981      8975      8977      8979      8982
      8976      8975      8977      8978      8976      8975      8977      8979
      8977      8979      8982      8983      8977      8979      8982      8984
      8977      8979      8982      8985      8978      8977      8979      8980
      8978      8977      8979      8981      8978      8977      8979      8982
      8979      8982      8985      8986      8979      8982      8985      8987
      8979      8982      8985      8988      8980      8979      8982      8983
      8980      8979      8982      8984      8980      8979      8982      8985
      8981      8979      8982      8983      8981      8979      8982      8984
      8981      8979      8982      8985      8982      8985      8988      8989
      8982      8985      8988      8990      8982      8985      8988      8991
      8983      8982      8985      8986      8983      8982      8985      8987
      8983      8982      8985      8988      8984      8982      8985      8986
      8984      8982      8985      8987      8984      8982      8985      8988
      8985      8988      8991      8992      8985      8988      8991      8993
      8985      8988      8991      8994      8986      8985      8988      8989
      8986      8985      8988      8990      8986      8985      8988      8991
      8987      8985      8988      8989      8987      8985      8988      8990
      8987      8985      8988      8991      8988      8991      8994      8995
      8988      8991      8994      8996      8988      8991      8994      8997
      8989      8988      8991      8992      8989      8988      8991      8993
      8989      8988      8991      8994      8990      8988      8991      8992
      8990      8988      8991      8993      8990      8988      8991      8994
      8991      8994      8997      8998      8991      8994      8997      8999
      8991      8994      8997      9000      8992      8991      8994      8995
      8992      8991      8994      8996      8992      8991      8994      8997
      8993      8991      8994      8995      8993      8991      8994      8996
      8993      8991      8994      8997      8994      8997      9000      9001
      8994      8997      9000      9002      8994      8997      9000      9003
      8995      8994      8997      8998      8995      8994      8997      8999
      8995      8994      8997      9000      8996      8994      8997      8998
      8996      8994      8997      8999      8996      8994      8997      9000
      8998      8997      9000      9001      8998      8997      9000      9002
      8998      8997      9000      9003      8999      8997      9000      9001
      8999      8997      9000      9002      8999      8997      9000      9003
      9004      9007      9010      9011      9004      9007      9010      9012
      9004      9007      9010      9013      9005      9004      9007      9008
      9005      9004      9007      9009      9005      9004      9007      9010
      9006      9004      9007      9008      9006      9004      9007      9009
      9006      9004      9007      9010      9007      9010      9013      9014
      9007      9010      9013      9015      9007      9010      9013      9016
      9008      9007      9010      9011      9008      9007      9010      9012
      9008      9007      9010      9013      9009      9007      9010      9011
      9009      9007      9010      9012      9009      9007      9010      9013
      9010      9013      9016      9017      9010      9013      9016      9018
      9010      9013      9016      9019      9011      9010      9013      9014
      9011      9010      9013      9015      9011      9010      9013      9016
      9012      9010      9013      9014      9012      9010      9013      9015
      9012      9010      9013      9016      9013      9016      9019      9020
      9013      9016      9019      9021      9013      9016      9019      9022
      9014      9013      9016      9017      9014      9013      9016      9018
      9014      9013      9016      9019      9015      9013      9016      9017
      9015      9013      9016      9018      9015      9013      9016      9019
      9016      9019      9022      9023      9016      9019      9022      9024
      9016      9019      9022      9025      9017      9016      9019      9020
      9017      9016      9019      9021      9017      9016      9019      9022
      9018      9016      9019      9020      9018      9016      9019      9021
      9018      9016      9019      9022      9019      9022      9025      9026
      9019      9022      9025      9027      9019      9022      9025      9028
      9020      9019      9022      9023      9020      9019      9022      9024
      9020      9019      9022      9025      9021      9019      9022      9023
      9021      9019      9022      9024      9021      9019      9022      9025
      9022      9025      9028      9029      9022      9025      9028      9030
      9022      9025      9028      9031      9023      9022      9025      9026
      9023      9022      9025      9027      9023      9022      9025      9028
      9024      9022      9025      9026      9024      9022      9025      9027
      9024      9022      9025      9028      9025      9028      9031      9032
      9025      9028      9031      9033      9025      9028      9031      9034
      9026      9025      9028      9029      9026      9025      9028      9030
      9026      9025      9028      9031      9027      9025      9028      9029
      9027      9025      9028      9030      9027      9025      9028      9031
      9028      9031      9034      9035      9028      9031      9034      9036
      9028      9031      9034      9037      9029      9028      9031      9032
      9029      9028      9031      9033      9029      9028      9031      9034
      9030      9028      9031      9032      9030      9028      9031      9033
      9030      9028      9031      9034      9031      9034      9037      9038
      9031      9034      9037      9039      9031      9034      9037      9040
      9032      9031      9034      9035      9032      9031      9034      9036
      9032      9031      9034      9037      9033      9031      9034      9035
      9033      9031      9034      9036      9033      9031      9034      9037
      9034      9037      9040      9041      9034      9037      9040      9042
      9034      9037      9040      9043      9035      9034      9037      9038
      9035      9034      9037      9039      9035      9034      9037      9040
      9036      9034      9037      9038      9036      9034      9037      9039
      9036      9034      9037      9040      9037      9040      9043      9044
      9037      9040      9043      9045      9037      9040      9043      9046
      9038      9037      9040      9041      9038      9037      9040      9042
      9038      9037      9040      9043      9039      9037      9040      9041
      9039      9037      9040      9042      9039      9037      9040      9043
      9041      9040      9043      9044      9041      9040      9043      9045
      9041      9040      9043      9046      9042      9040      9043      9044
      9042      9040      9043      9045      9042      9040      9043      9046
      9047      9048      9063      9064      9047      9048      9063      9065
      9047      9048      9063      9069      9048      9047      9051      9052
      9048      9047      9051      9053      9048      9047      9051      9054
      9048      9047      9055      9056      9048      9047      9055      9057
      9048      9047      9055      9058      9048      9047      9059      9060
      9048      9047      9059      9061      9048      9047      9059      9062
      9048      9063      9069      9066      9049      9048      9047      9051
      9049      9048      9047      9055      9049      9048      9047      9059
      9049      9048      9063      9064      9049      9048      9063      9065
      9049      9048      9063      9069      9050      9048      9047      9051
      9050      9048      9047      9055      9050      9048      9047      9059
      9050      9048      9063      9064      9050      9048      9063      9065
      9050      9048      9063      9069      9051      9047      9048      9063
      9051      9047      9055      9056      9051      9047      9055      9057
      9051      9047      9055      9058      9051      9047      9059      9060
      9051      9047      9059      9061      9051      9047      9059      9062
      9052      9051      9047      9055      9052      9051      9047      9059
      9053      9051      9047      9055      9053      9051      9047      9059
      9054      9051      9047      9055      9054      9051      9047      9059
      9055      9047      9048      9063      9055      9047      9059      9060
      9055      9047      9059      9061      9055      9047      9059      9062
      9056      9055      9047      9059      9057      9055      9047      9059
      9058      9055      9047      9059      9059      9047      9048      9063
      9063      9069      9066      9067      9063      9069      9066      9068
      9063      9069      9066      9070      9064      9063      9069      9066
      9065      9063      9069      9066      9066      9070      9071      9072
      9066      9070      9071      9073      9066      9070      9071      9074
      9067      9066      9070      9071      9068      9066      9070      9071
      9069      9066      9070      9071      9070      9071      9074      9075
      9070      9071      9074      9076      9070      9071      9074      9082
      9071      9074      9076      9077      9071      9074      9082      9083
      9071      9074      9082      9084      9071      9074      9082      9085
      9072      9071      9074      9075      9072      9071      9074      9076
      9072      9071      9074      9082      9073      9071      9074      9075
      9073      9071      9074      9076      9073      9071      9074      9082
      9074      9076      9077      9078      9074      9076      9077      9079
      9074      9082      9085      9086      9075      9074      9076      9077
      9075      9074      9082      9083      9075      9074      9082      9084
      9075      9074      9082      9085      9076      9074      9082      9083
      9076      9074      9082      9084      9076      9074      9082      9085
      9076      9077      9079      9080      9076      9077      9079      9081
      9076      9077      9079      9091      9077      9076      9074      9082
      9077      9079      9091      9092      9077      9079      9091      9093
      9077      9079      9091      9094      9078      9077      9079      9080
      9078      9077      9079      9081      9078      9077      9079      9091
      9079      9091      9094      9095      9079      9091      9094      9096
      9079      9091      9094      9097      9080      9079      9091      9092
      9080      9079      9091      9093      9080      9079      9091      9094
      9081      9079      9091      9092      9081      9079      9091      9093
      9081      9079      9091      9094      9082      9085      9086      9087
      9082      9085      9086      9088      9083      9082      9085      9086
      9084      9082      9085      9086      9085      9086      9088      9089
      9085      9086      9088      9090      9085      9086      9088      9138
      9086      9088      9138      9139      9086      9088      9138      9140
      9086      9088      9138      9141      9087      9086      9088      9089
      9087      9086      9088      9090      9087      9086      9088      9138
      9088      9138      9141      9142      9088      9138      9141      9143
      9088      9138      9141      9144      9089      9088      9138      9139
      9089      9088      9138      9140      9089      9088      9138      9141
      9090      9088      9138      9139      9090      9088      9138      9140
      9090      9088      9138      9141      9091      9094      9097      9098
      9091      9094      9097      9099      9091      9094      9097      9100
      9092      9091      9094      9095      9092      9091      9094      9096
      9092      9091      9094      9097      9093      9091      9094      9095
      9093      9091      9094      9096      9093      9091      9094      9097
      9094      9097      9100      9101      9094      9097      9100      9102
      9094      9097      9100      9103      9095      9094      9097      9098
      9095      9094      9097      9099      9095      9094      9097      9100
      9096      9094      9097      9098      9096      9094      9097      9099
      9096      9094      9097      9100      9097      9100      9103      9104
      9097      9100      9103      9105      9097      9100      9103      9106
      9098      9097      9100      9101      9098      9097      9100      9102
      9098      9097      9100      9103      9099      9097      9100      9101
      9099      9097      9100      9102      9099      9097      9100      9103
      9100      9103      9106      9107      9100      9103      9106      9108
      9100      9103      9106      9109      9101      9100      9103      9104
      9101      9100      9103      9105      9101      9100      9103      9106
      9102      9100      9103      9104      9102      9100      9103      9105
      9102      9100      9103      9106      9103      9106      9109      9110
      9103      9106      9109      9111      9104      9103      9106      9107
      9104      9103      9106      9108      9104      9103      9106      9109
      9105      9103      9106      9107      9105      9103      9106      9108
      9105      9103      9106      9109      9106      9109      9111      9112
      9106      9109      9111      9113      9107      9106      9109      9110
      9107      9106      9109      9111      9108      9106      9109      9110
      9108      9106      9109      9111      9109      9111      9113      9114
      9109      9111      9113      9115      9109      9111      9113      9116
      9110      9109      9111      9112      9110      9109      9111      9113
      9111      9113      9116      9117      9111      9113      9116      9118
      9111      9113      9116      9119      9112      9111      9113      9114
      9112      9111      9113      9115      9112      9111      9113      9116
      9113      9116      9119      9120      9113      9116      9119      9121
      9113      9116      9119      9122      9114      9113      9116      9117
      9114      9113      9116      9118      9114      9113      9116      9119
      9115      9113      9116      9117      9115      9113      9116      9118
      9115      9113      9116      9119      9116      9119      9122      9123
      9116      9119      9122      9124      9116      9119      9122      9125
      9117      9116      9119      9120      9117      9116      9119      9121
      9117      9116      9119      9122      9118      9116      9119      9120
      9118      9116      9119      9121      9118      9116      9119      9122
      9119      9122      9125      9126      9119      9122      9125      9127
      9119      9122      9125      9128      9120      9119      9122      9123
      9120      9119      9122      9124      9120      9119      9122      9125
      9121      9119      9122      9123      9121      9119      9122      9124
      9121      9119      9122      9125      9122      9125      9128      9129
      9122      9125      9128      9130      9122      9125      9128      9131
      9123      9122      9125      9126      9123      9122      9125      9127
      9123      9122      9125      9128      9124      9122      9125      9126
      9124      9122      9125      9127      9124      9122      9125      9128
      9125      9128      9131      9132      9125      9128      9131      9133
      9125      9128      9131      9134      9126      9125      9128      9129
      9126      9125      9128      9130      9126      9125      9128      9131
      9127      9125      9128      9129      9127      9125      9128      9130
      9127      9125      9128      9131      9128      9131      9134      9135
      9128      9131      9134      9136      9128      9131      9134      9137
      9129      9128      9131      9132      9129      9128      9131      9133
      9129      9128      9131      9134      9130      9128      9131      9132
      9130      9128      9131      9133      9130      9128      9131      9134
      9132      9131      9134      9135      9132      9131      9134      9136
      9132      9131      9134      9137      9133      9131      9134      9135
      9133      9131      9134      9136      9133      9131      9134      9137
      9138      9141      9144      9145      9138      9141      9144      9146
      9138      9141      9144      9147      9139      9138      9141      9142
      9139      9138      9141      9143      9139      9138      9141      9144
      9140      9138      9141      9142      9140      9138      9141      9143
      9140      9138      9141      9144      9141      9144      9147      9148
      9141      9144      9147      9149      9141      9144      9147      9150
      9142      9141      9144      9145      9142      9141      9144      9146
      9142      9141      9144      9147      9143      9141      9144      9145
      9143      9141      9144      9146      9143      9141      9144      9147
      9144      9147      9150      9151      9144      9147      9150      9152
      9144      9147      9150      9153      9145      9144      9147      9148
      9145      9144      9147      9149      9145      9144      9147      9150
      9146      9144      9147      9148      9146      9144      9147      9149
      9146      9144      9147      9150      9147      9150      9153      9154
      9147      9150      9153      9155      9147      9150      9153      9156
      9148      9147      9150      9151      9148      9147      9150      9152
      9148      9147      9150      9153      9149      9147      9150      9151
      9149      9147      9150      9152      9149      9147      9150      9153
      9150      9153      9156      9157      9150      9153      9156      9158
      9150      9153      9156      9159      9151      9150      9153      9154
      9151      9150      9153      9155      9151      9150      9153      9156
      9152      9150      9153      9154      9152      9150      9153      9155
      9152      9150      9153      9156      9153      9156      9159      9160
      9153      9156      9159      9161      9153      9156      9159      9162
      9154      9153      9156      9157      9154      9153      9156      9158
      9154      9153      9156      9159      9155      9153      9156      9157
      9155      9153      9156      9158      9155      9153      9156      9159
      9156      9159      9162      9163      9156      9159      9162      9164
      9156      9159      9162      9165      9157      9156      9159      9160
      9157      9156      9159      9161      9157      9156      9159      9162
      9158      9156      9159      9160      9158      9156      9159      9161
      9158      9156      9159      9162      9159      9162      9165      9166
      9159      9162      9165      9167      9159      9162      9165      9168
      9160      9159      9162      9163      9160      9159      9162      9164
      9160      9159      9162      9165      9161      9159      9162      9163
      9161      9159      9162      9164      9161      9159      9162      9165
      9162      9165      9168      9169      9162      9165      9168      9170
      9162      9165      9168      9171      9163      9162      9165      9166
      9163      9162      9165      9167      9163      9162      9165      9168
      9164      9162      9165      9166      9164      9162      9165      9167
      9164      9162      9165      9168      9165      9168      9171      9172
      9165      9168      9171      9173      9165      9168      9171      9174
      9166      9165      9168      9169      9166      9165      9168      9170
      9166      9165      9168      9171      9167      9165      9168      9169
      9167      9165      9168      9170      9167      9165      9168      9171
      9168      9171      9174      9175      9168      9171      9174      9176
      9168      9171      9174      9177      9169      9168      9171      9172
      9169      9168      9171      9173      9169      9168      9171      9174
      9170      9168      9171      9172      9170      9168      9171      9173
      9170      9168      9171      9174      9171      9174      9177      9178
      9171      9174      9177      9179      9171      9174      9177      9180
      9172      9171      9174      9175      9172      9171      9174      9176
      9172      9171      9174      9177      9173      9171      9174      9175
      9173      9171      9174      9176      9173      9171      9174      9177
      9175      9174      9177      9178      9175      9174      9177      9179
      9175      9174      9177      9180      9176      9174      9177      9178
      9176      9174      9177      9179      9176      9174      9177      9180
      9181      9182      9197      9198      9181      9182      9197      9199
      9181      9182      9197      9203      9182      9181      9185      9186
      9182      9181      9185      9187      9182      9181      9185      9188
      9182      9181      9189      9190      9182      9181      9189      9191
      9182      9181      9189      9192      9182      9181      9193      9194
      9182      9181      9193      9195      9182      9181      9193      9196
      9182      9197      9203      9200      9183      9182      9181      9185
      9183      9182      9181      9189      9183      9182      9181      9193
      9183      9182      9197      9198      9183      9182      9197      9199
      9183      9182      9197      9203      9184      9182      9181      9185
      9184      9182      9181      9189      9184      9182      9181      9193
      9184      9182      9197      9198      9184      9182      9197      9199
      9184      9182      9197      9203      9185      9181      9182      9197
      9185      9181      9189      9190      9185      9181      9189      9191
      9185      9181      9189      9192      9185      9181      9193      9194
      9185      9181      9193      9195      9185      9181      9193      9196
      9186      9185      9181      9189      9186      9185      9181      9193
      9187      9185      9181      9189      9187      9185      9181      9193
      9188      9185      9181      9189      9188      9185      9181      9193
      9189      9181      9182      9197      9189      9181      9193      9194
      9189      9181      9193      9195      9189      9181      9193      9196
      9190      9189      9181      9193      9191      9189      9181      9193
      9192      9189      9181      9193      9193      9181      9182      9197
      9197      9203      9200      9201      9197      9203      9200      9202
      9197      9203      9200      9204      9198      9197      9203      9200
      9199      9197      9203      9200      9200      9204      9205      9206
      9200      9204      9205      9207      9200      9204      9205      9208
      9201      9200      9204      9205      9202      9200      9204      9205
      9203      9200      9204      9205      9204      9205      9208      9209
      9204      9205      9208      9210      9204      9205      9208      9216
      9205      9208      9210      9211      9205      9208      9216      9217
      9205      9208      9216      9218      9205      9208      9216      9219
      9206      9205      9208      9209      9206      9205      9208      9210
      9206      9205      9208      9216      9207      9205      9208      9209
      9207      9205      9208      9210      9207      9205      9208      9216
      9208      9210      9211      9212      9208      9210      9211      9213
      9208      9216      9219      9220      9209      9208      9210      9211
      9209      9208      9216      9217      9209      9208      9216      9218
      9209      9208      9216      9219      9210      9208      9216      9217
      9210      9208      9216      9218      9210      9208      9216      9219
      9210      9211      9213      9214      9210      9211      9213      9215
      9210      9211      9213      9225      9211      9210      9208      9216
      9211      9213      9225      9226      9211      9213      9225      9227
      9211      9213      9225      9228      9212      9211      9213      9214
      9212      9211      9213      9215      9212      9211      9213      9225
      9213      9225      9228      9229      9213      9225      9228      9230
      9213      9225      9228      9231      9214      9213      9225      9226
      9214      9213      9225      9227      9214      9213      9225      9228
      9215      9213      9225      9226      9215      9213      9225      9227
      9215      9213      9225      9228      9216      9219      9220      9221
      9216      9219      9220      9222      9217      9216      9219      9220
      9218      9216      9219      9220      9219      9220      9222      9223
      9219      9220      9222      9224      9219      9220      9222      9272
      9220      9222      9272      9273      9220      9222      9272      9274
      9220      9222      9272      9275      9221      9220      9222      9223
      9221      9220      9222      9224      9221      9220      9222      9272
      9222      9272      9275      9276      9222      9272      9275      9277
      9222      9272      9275      9278      9223      9222      9272      9273
      9223      9222      9272      9274      9223      9222      9272      9275
      9224      9222      9272      9273      9224      9222      9272      9274
      9224      9222      9272      9275      9225      9228      9231      9232
      9225      9228      9231      9233      9225      9228      9231      9234
      9226      9225      9228      9229      9226      9225      9228      9230
      9226      9225      9228      9231      9227      9225      9228      9229
      9227      9225      9228      9230      9227      9225      9228      9231
      9228      9231      9234      9235      9228      9231      9234      9236
      9228      9231      9234      9237      9229      9228      9231      9232
      9229      9228      9231      9233      9229      9228      9231      9234
      9230      9228      9231      9232      9230      9228      9231      9233
      9230      9228      9231      9234      9231      9234      9237      9238
      9231      9234      9237      9239      9231      9234      9237      9240
      9232      9231      9234      9235      9232      9231      9234      9236
      9232      9231      9234      9237      9233      9231      9234      9235
      9233      9231      9234      9236      9233      9231      9234      9237
      9234      9237      9240      9241      9234      9237      9240      9242
      9234      9237      9240      9243      9235      9234      9237      9238
      9235      9234      9237      9239      9235      9234      9237      9240
      9236      9234      9237      9238      9236      9234      9237      9239
      9236      9234      9237      9240      9237      9240      9243      9244
      9237      9240      9243      9245      9238      9237      9240      9241
      9238      9237      9240      9242      9238      9237      9240      9243
      9239      9237      9240      9241      9239      9237      9240      9242
      9239      9237      9240      9243      9240      9243      9245      9246
      9240      9243      9245      9247      9241      9240      9243      9244
      9241      9240      9243      9245      9242      9240      9243      9244
      9242      9240      9243      9245      9243      9245      9247      9248
      9243      9245      9247      9249      9243      9245      9247      9250
      9244      9243      9245      9246      9244      9243      9245      9247
      9245      9247      9250      9251      9245      9247      9250      9252
      9245      9247      9250      9253      9246      9245      9247      9248
      9246      9245      9247      9249      9246      9245      9247      9250
      9247      9250      9253      9254      9247      9250      9253      9255
      9247      9250      9253      9256      9248      9247      9250      9251
      9248      9247      9250      9252      9248      9247      9250      9253
      9249      9247      9250      9251      9249      9247      9250      9252
      9249      9247      9250      9253      9250      9253      9256      9257
      9250      9253      9256      9258      9250      9253      9256      9259
      9251      9250      9253      9254      9251      9250      9253      9255
      9251      9250      9253      9256      9252      9250      9253      9254
      9252      9250      9253      9255      9252      9250      9253      9256
      9253      9256      9259      9260      9253      9256      9259      9261
      9253      9256      9259      9262      9254      9253      9256      9257
      9254      9253      9256      9258      9254      9253      9256      9259
      9255      9253      9256      9257      9255      9253      9256      9258
      9255      9253      9256      9259      9256      9259      9262      9263
      9256      9259      9262      9264      9256      9259      9262      9265
      9257      9256      9259      9260      9257      9256      9259      9261
      9257      9256      9259      9262      9258      9256      9259      9260
      9258      9256      9259      9261      9258      9256      9259      9262
      9259      9262      9265      9266      9259      9262      9265      9267
      9259      9262      9265      9268      9260      9259      9262      9263
      9260      9259      9262      9264      9260      9259      9262      9265
      9261      9259      9262      9263      9261      9259      9262      9264
      9261      9259      9262      9265      9262      9265      9268      9269
      9262      9265      9268      9270      9262      9265      9268      9271
      9263      9262      9265      9266      9263      9262      9265      9267
      9263      9262      9265      9268      9264      9262      9265      9266
      9264      9262      9265      9267      9264      9262      9265      9268
      9266      9265      9268      9269      9266      9265      9268      9270
      9266      9265      9268      9271      9267      9265      9268      9269
      9267      9265      9268      9270      9267      9265      9268      9271
      9272      9275      9278      9279      9272      9275      9278      9280
      9272      9275      9278      9281      9273      9272      9275      9276
      9273      9272      9275      9277      9273      9272      9275      9278
      9274      9272      9275      9276      9274      9272      9275      9277
      9274      9272      9275      9278      9275      9278      9281      9282
      9275      9278      9281      9283      9275      9278      9281      9284
      9276      9275      9278      9279      9276      9275      9278      9280
      9276      9275      9278      9281      9277      9275      9278      9279
      9277      9275      9278      9280      9277      9275      9278      9281
      9278      9281      9284      9285      9278      9281      9284      9286
      9278      9281      9284      9287      9279      9278      9281      9282
      9279      9278      9281      9283      9279      9278      9281      9284
      9280      9278      9281      9282      9280      9278      9281      9283
      9280      9278      9281      9284      9281      9284      9287      9288
      9281      9284      9287      9289      9281      9284      9287      9290
      9282      9281      9284      9285      9282      9281      9284      9286
      9282      9281      9284      9287      9283      9281      9284      9285
      9283      9281      9284      9286      9283      9281      9284      9287
      9284      9287      9290      9291      9284      9287      9290      9292
      9284      9287      9290      9293      9285      9284      9287      9288
      9285      9284      9287      9289      9285      9284      9287      9290
      9286      9284      9287      9288      9286      9284      9287      9289
      9286      9284      9287      9290      9287      9290      9293      9294
      9287      9290      9293      9295      9287      9290      9293      9296
      9288      9287      9290      9291      9288      9287      9290      9292
      9288      9287      9290      9293      9289      9287      9290      9291
      9289      9287      9290      9292      9289      9287      9290      9293
      9290      9293      9296      9297      9290      9293      9296      9298
      9290      9293      9296      9299      9291      9290      9293      9294
      9291      9290      9293      9295      9291      9290      9293      9296
      9292      9290      9293      9294      9292      9290      9293      9295
      9292      9290      9293      9296      9293      9296      9299      9300
      9293      9296      9299      9301      9293      9296      9299      9302
      9294      9293      9296      9297      9294      9293      9296      9298
      9294      9293      9296      9299      9295      9293      9296      9297
      9295      9293      9296      9298      9295      9293      9296      9299
      9296      9299      9302      9303      9296      9299      9302      9304
      9296      9299      9302      9305      9297      9296      9299      9300
      9297      9296      9299      9301      9297      9296      9299      9302
      9298      9296      9299      9300      9298      9296      9299      9301
      9298      9296      9299      9302      9299      9302      9305      9306
      9299      9302      9305      9307      9299      9302      9305      9308
      9300      9299      9302      9303      9300      9299      9302      9304
      9300      9299      9302      9305      9301      9299      9302      9303
      9301      9299      9302      9304      9301      9299      9302      9305
      9302      9305      9308      9309      9302      9305      9308      9310
      9302      9305      9308      9311      9303      9302      9305      9306
      9303      9302      9305      9307      9303      9302      9305      9308
      9304      9302      9305      9306      9304      9302      9305      9307
      9304      9302      9305      9308      9305      9308      9311      9312
      9305      9308      9311      9313      9305      9308      9311      9314
      9306      9305      9308      9309      9306      9305      9308      9310
      9306      9305      9308      9311      9307      9305      9308      9309
      9307      9305      9308      9310      9307      9305      9308      9311
      9309      9308      9311      9312      9309      9308      9311      9313
      9309      9308      9311      9314      9310      9308      9311      9312
      9310      9308      9311      9313      9310      9308      9311      9314
      9315      9316      9331      9332      9315      9316      9331      9333
      9315      9316      9331      9337      9316      9315      9319      9320
      9316      9315      9319      9321      9316      9315      9319      9322
      9316      9315      9323      9324      9316      9315      9323      9325
      9316      9315      9323      9326      9316      9315      9327      9328
      9316      9315      9327      9329      9316      9315      9327      9330
      9316      9331      9337      9334      9317      9316      9315      9319
      9317      9316      9315      9323      9317      9316      9315      9327
      9317      9316      9331      9332      9317      9316      9331      9333
      9317      9316      9331      9337      9318      9316      9315      9319
      9318      9316      9315      9323      9318      9316      9315      9327
      9318      9316      9331      9332      9318      9316      9331      9333
      9318      9316      9331      9337      9319      9315      9316      9331
      9319      9315      9323      9324      9319      9315      9323      9325
      9319      9315      9323      9326      9319      9315      9327      9328
      9319      9315      9327      9329      9319      9315      9327      9330
      9320      9319      9315      9323      9320      9319      9315      9327
      9321      9319      9315      9323      9321      9319      9315      9327
      9322      9319      9315      9323      9322      9319      9315      9327
      9323      9315      9316      9331      9323      9315      9327      9328
      9323      9315      9327      9329      9323      9315      9327      9330
      9324      9323      9315      9327      9325      9323      9315      9327
      9326      9323      9315      9327      9327      9315      9316      9331
      9331      9337      9334      9335      9331      9337      9334      9336
      9331      9337      9334      9338      9332      9331      9337      9334
      9333      9331      9337      9334      9334      9338      9339      9340
      9334      9338      9339      9341      9334      9338      9339      9342
      9335      9334      9338      9339      9336      9334      9338      9339
      9337      9334      9338      9339      9338      9339      9342      9343
      9338      9339      9342      9344      9338      9339      9342      9350
      9339      9342      9344      9345      9339      9342      9350      9351
      9339      9342      9350      9352      9339      9342      9350      9353
      9340      9339      9342      9343      9340      9339      9342      9344
      9340      9339      9342      9350      9341      9339      9342      9343
      9341      9339      9342      9344      9341      9339      9342      9350
      9342      9344      9345      9346      9342      9344      9345      9347
      9342      9350      9353      9354      9343      9342      9344      9345
      9343      9342      9350      9351      9343      9342      9350      9352
      9343      9342      9350      9353      9344      9342      9350      9351
      9344      9342      9350      9352      9344      9342      9350      9353
      9344      9345      9347      9348      9344      9345      9347      9349
      9344      9345      9347      9359      9345      9344      9342      9350
      9345      9347      9359      9360      9345      9347      9359      9361
      9345      9347      9359      9362      9346      9345      9347      9348
      9346      9345      9347      9349      9346      9345      9347      9359
      9347      9359      9362      9363      9347      9359      9362      9364
      9347      9359      9362      9365      9348      9347      9359      9360
      9348      9347      9359      9361      9348      9347      9359      9362
      9349      9347      9359      9360      9349      9347      9359      9361
      9349      9347      9359      9362      9350      9353      9354      9355
      9350      9353      9354      9356      9351      9350      9353      9354
      9352      9350      9353      9354      9353      9354      9356      9357
      9353      9354      9356      9358      9353      9354      9356      9406
      9354      9356      9406      9407      9354      9356      9406      9408
      9354      9356      9406      9409      9355      9354      9356      9357
      9355      9354      9356      9358      9355      9354      9356      9406
      9356      9406      9409      9410      9356      9406      9409      9411
      9356      9406      9409      9412      9357      9356      9406      9407
      9357      9356      9406      9408      9357      9356      9406      9409
      9358      9356      9406      9407      9358      9356      9406      9408
      9358      9356      9406      9409      9359      9362      9365      9366
      9359      9362      9365      9367      9359      9362      9365      9368
      9360      9359      9362      9363      9360      9359      9362      9364
      9360      9359      9362      9365      9361      9359      9362      9363
      9361      9359      9362      9364      9361      9359      9362      9365
      9362      9365      9368      9369      9362      9365      9368      9370
      9362      9365      9368      9371      9363      9362      9365      9366
      9363      9362      9365      9367      9363      9362      9365      9368
      9364      9362      9365      9366      9364      9362      9365      9367
      9364      9362      9365      9368      9365      9368      9371      9372
      9365      9368      9371      9373      9365      9368      9371      9374
      9366      9365      9368      9369      9366      9365      9368      9370
      9366      9365      9368      9371      9367      9365      9368      9369
      9367      9365      9368      9370      9367      9365      9368      9371
      9368      9371      9374      9375      9368      9371      9374      9376
      9368      9371      9374      9377      9369      9368      9371      9372
      9369      9368      9371      9373      9369      9368      9371      9374
      9370      9368      9371      9372      9370      9368      9371      9373
      9370      9368      9371      9374      9371      9374      9377      9378
      9371      9374      9377      9379      9372      9371      9374      9375
      9372      9371      9374      9376      9372      9371      9374      9377
      9373      9371      9374      9375      9373      9371      9374      9376
      9373      9371      9374      9377      9374      9377      9379      9380
      9374      9377      9379      9381      9375      9374      9377      9378
      9375      9374      9377      9379      9376      9374      9377      9378
      9376      9374      9377      9379      9377      9379      9381      9382
      9377      9379      9381      9383      9377      9379      9381      9384
      9378      9377      9379      9380      9378      9377      9379      9381
      9379      9381      9384      9385      9379      9381      9384      9386
      9379      9381      9384      9387      9380      9379      9381      9382
      9380      9379      9381      9383      9380      9379      9381      9384
      9381      9384      9387      9388      9381      9384      9387      9389
      9381      9384      9387      9390      9382      9381      9384      9385
      9382      9381      9384      9386      9382      9381      9384      9387
      9383      9381      9384      9385      9383      9381      9384      9386
      9383      9381      9384      9387      9384      9387      9390      9391
      9384      9387      9390      9392      9384      9387      9390      9393
      9385      9384      9387      9388      9385      9384      9387      9389
      9385      9384      9387      9390      9386      9384      9387      9388
      9386      9384      9387      9389      9386      9384      9387      9390
      9387      9390      9393      9394      9387      9390      9393      9395
      9387      9390      9393      9396      9388      9387      9390      9391
      9388      9387      9390      9392      9388      9387      9390      9393
      9389      9387      9390      9391      9389      9387      9390      9392
      9389      9387      9390      9393      9390      9393      9396      9397
      9390      9393      9396      9398      9390      9393      9396      9399
      9391      9390      9393      9394      9391      9390      9393      9395
      9391      9390      9393      9396      9392      9390      9393      9394
      9392      9390      9393      9395      9392      9390      9393      9396
      9393      9396      9399      9400      9393      9396      9399      9401
      9393      9396      9399      9402      9394      9393      9396      9397
      9394      9393      9396      9398      9394      9393      9396      9399
      9395      9393      9396      9397      9395      9393      9396      9398
      9395      9393      9396      9399      9396      9399      9402      9403
      9396      9399      9402      9404      9396      9399      9402      9405
      9397      9396      9399      9400      9397      9396      9399      9401
      9397      9396      9399      9402      9398      9396      9399      9400
      9398      9396      9399      9401      9398      9396      9399      9402
      9400      9399      9402      9403      9400      9399      9402      9404
      9400      9399      9402      9405      9401      9399      9402      9403
      9401      9399      9402      9404      9401      9399      9402      9405
      9406      9409      9412      9413      9406      9409      9412      9414
      9406      9409      9412      9415      9407      9406      9409      9410
      9407      9406      9409      9411      9407      9406      9409      9412
      9408      9406      9409      9410      9408      9406      9409      9411
      9408      9406      9409      9412      9409      9412      9415      9416
      9409      9412      9415      9417      9409      9412      9415      9418
      9410      9409      9412      9413      9410      9409      9412      9414
      9410      9409      9412      9415      9411      9409      9412      9413
      9411      9409      9412      9414      9411      9409      9412      9415
      9412      9415      9418      9419      9412      9415      9418      9420
      9412      9415      9418      9421      9413      9412      9415      9416
      9413      9412      9415      9417      9413      9412      9415      9418
      9414      9412      9415      9416      9414      9412      9415      9417
      9414      9412      9415      9418      9415      9418      9421      9422
      9415      9418      9421      9423      9415      9418      9421      9424
      9416      9415      9418      9419      9416      9415      9418      9420
      9416      9415      9418      9421      9417      9415      9418      9419
      9417      9415      9418      9420      9417      9415      9418      9421
      9418      9421      9424      9425      9418      9421      9424      9426
      9418      9421      9424      9427      9419      9418      9421      9422
      9419      9418      9421      9423      9419      9418      9421      9424
      9420      9418      9421      9422      9420      9418      9421      9423
      9420      9418      9421      9424      9421      9424      9427      9428
      9421      9424      9427      9429      9421      9424      9427      9430
      9422      9421      9424      9425      9422      9421      9424      9426
      9422      9421      9424      9427      9423      9421      9424      9425
      9423      9421      9424      9426      9423      9421      9424      9427
      9424      9427      9430      9431      9424      9427      9430      9432
      9424      9427      9430      9433      9425      9424      9427      9428
      9425      9424      9427      9429      9425      9424      9427      9430
      9426      9424      9427      9428      9426      9424      9427      9429
      9426      9424      9427      9430      9427      9430      9433      9434
      9427      9430      9433      9435      9427      9430      9433      9436
      9428      9427      9430      9431      9428      9427      9430      9432
      9428      9427      9430      9433      9429      9427      9430      9431
      9429      9427      9430      9432      9429      9427      9430      9433
      9430      9433      9436      9437      9430      9433      9436      9438
      9430      9433      9436      9439      9431      9430      9433      9434
      9431      9430      9433      9435      9431      9430      9433      9436
      9432      9430      9433      9434      9432      9430      9433      9435
      9432      9430      9433      9436      9433      9436      9439      9440
      9433      9436      9439      9441      9433      9436      9439      9442
      9434      9433      9436      9437      9434      9433      9436      9438
      9434      9433      9436      9439      9435      9433      9436      9437
      9435      9433      9436      9438      9435      9433      9436      9439
      9436      9439      9442      9443      9436      9439      9442      9444
      9436      9439      9442      9445      9437      9436      9439      9440
      9437      9436      9439      9441      9437      9436      9439      9442
      9438      9436      9439      9440      9438      9436      9439      9441
      9438      9436      9439      9442      9439      9442      9445      9446
      9439      9442      9445      9447      9439      9442      9445      9448
      9440      9439      9442      9443      9440      9439      9442      9444
      9440      9439      9442      9445      9441      9439      9442      9443
      9441      9439      9442      9444      9441      9439      9442      9445
      9443      9442      9445      9446      9443      9442      9445      9447
      9443      9442      9445      9448      9444      9442      9445      9446
      9444      9442      9445      9447      9444      9442      9445      9448
      9449      9450      9465      9466      9449      9450      9465      9467
      9449      9450      9465      9471      9450      9449      9453      9454
      9450      9449      9453      9455      9450      9449      9453      9456
      9450      9449      9457      9458      9450      9449      9457      9459
      9450      9449      9457      9460      9450      9449      9461      9462
      9450      9449      9461      9463      9450      9449      9461      9464
      9450      9465      9471      9468      9451      9450      9449      9453
      9451      9450      9449      9457      9451      9450      9449      9461
      9451      9450      9465      9466      9451      9450      9465      9467
      9451      9450      9465      9471      9452      9450      9449      9453
      9452      9450      9449      9457      9452      9450      9449      9461
      9452      9450      9465      9466      9452      9450      9465      9467
      9452      9450      9465      9471      9453      9449      9450      9465
      9453      9449      9457      9458      9453      9449      9457      9459
      9453      9449      9457      9460      9453      9449      9461      9462
      9453      9449      9461      9463      9453      9449      9461      9464
      9454      9453      9449      9457      9454      9453      9449      9461
      9455      9453      9449      9457      9455      9453      9449      9461
      9456      9453      9449      9457      9456      9453      9449      9461
      9457      9449      9450      9465      9457      9449      9461      9462
      9457      9449      9461      9463      9457      9449      9461      9464
      9458      9457      9449      9461      9459      9457      9449      9461
      9460      9457      9449      9461      9461      9449      9450      9465
      9465      9471      9468      9469      9465      9471      9468      9470
      9465      9471      9468      9472      9466      9465      9471      9468
      9467      9465      9471      9468      9468      9472      9473      9474
      9468      9472      9473      9475      9468      9472      9473      9476
      9469      9468      9472      9473      9470      9468      9472      9473
      9471      9468      9472      9473      9472      9473      9476      9477
      9472      9473      9476      9478      9472      9473      9476      9484
      9473      9476      9478      9479      9473      9476      9484      9485
      9473      9476      9484      9486      9473      9476      9484      9487
      9474      9473      9476      9477      9474      9473      9476      9478
      9474      9473      9476      9484      9475      9473      9476      9477
      9475      9473      9476      9478      9475      9473      9476      9484
      9476      9478      9479      9480      9476      9478      9479      9481
      9476      9484      9487      9488      9477      9476      9478      9479
      9477      9476      9484      9485      9477      9476      9484      9486
      9477      9476      9484      9487      9478      9476      9484      9485
      9478      9476      9484      9486      9478      9476      9484      9487
      9478      9479      9481      9482      9478      9479      9481      9483
      9478      9479      9481      9493      9479      9478      9476      9484
      9479      9481      9493      9494      9479      9481      9493      9495
      9479      9481      9493      9496      9480      9479      9481      9482
      9480      9479      9481      9483      9480      9479      9481      9493
      9481      9493      9496      9497      9481      9493      9496      9498
      9481      9493      9496      9499      9482      9481      9493      9494
      9482      9481      9493      9495      9482      9481      9493      9496
      9483      9481      9493      9494      9483      9481      9493      9495
      9483      9481      9493      9496      9484      9487      9488      9489
      9484      9487      9488      9490      9485      9484      9487      9488
      9486      9484      9487      9488      9487      9488      9490      9491
      9487      9488      9490      9492      9487      9488      9490      9540
      9488      9490      9540      9541      9488      9490      9540      9542
      9488      9490      9540      9543      9489      9488      9490      9491
      9489      9488      9490      9492      9489      9488      9490      9540
      9490      9540      9543      9544      9490      9540      9543      9545
      9490      9540      9543      9546      9491      9490      9540      9541
      9491      9490      9540      9542      9491      9490      9540      9543
      9492      9490      9540      9541      9492      9490      9540      9542
      9492      9490      9540      9543      9493      9496      9499      9500
      9493      9496      9499      9501      9493      9496      9499      9502
      9494      9493      9496      9497      9494      9493      9496      9498
      9494      9493      9496      9499      9495      9493      9496      9497
      9495      9493      9496      9498      9495      9493      9496      9499
      9496      9499      9502      9503      9496      9499      9502      9504
      9496      9499      9502      9505      9497      9496      9499      9500
      9497      9496      9499      9501      9497      9496      9499      9502
      9498      9496      9499      9500      9498      9496      9499      9501
      9498      9496      9499      9502      9499      9502      9505      9506
      9499      9502      9505      9507      9499      9502      9505      9508
      9500      9499      9502      9503      9500      9499      9502      9504
      9500      9499      9502      9505      9501      9499      9502      9503
      9501      9499      9502      9504      9501      9499      9502      9505
      9502      9505      9508      9509      9502      9505      9508      9510
      9502      9505      9508      9511      9503      9502      9505      9506
      9503      9502      9505      9507      9503      9502      9505      9508
      9504      9502      9505      9506      9504      9502      9505      9507
      9504      9502      9505      9508      9505      9508      9511      9512
      9505      9508      9511      9513      9506      9505      9508      9509
      9506      9505      9508      9510      9506      9505      9508      9511
      9507      9505      9508      9509      9507      9505      9508      9510
      9507      9505      9508      9511      9508      9511      9513      9514
      9508      9511      9513      9515      9509      9508      9511      9512
      9509      9508      9511      9513      9510      9508      9511      9512
      9510      9508      9511      9513      9511      9513      9515      9516
      9511      9513      9515      9517      9511      9513      9515      9518
      9512      9511      9513      9514      9512      9511      9513      9515
      9513      9515      9518      9519      9513      9515      9518      9520
      9513      9515      9518      9521      9514      9513      9515      9516
      9514      9513      9515      9517      9514      9513      9515      9518
      9515      9518      9521      9522      9515      9518      9521      9523
      9515      9518      9521      9524      9516      9515      9518      9519
      9516      9515      9518      9520      9516      9515      9518      9521
      9517      9515      9518      9519      9517      9515      9518      9520
      9517      9515      9518      9521      9518      9521      9524      9525
      9518      9521      9524      9526      9518      9521      9524      9527
      9519      9518      9521      9522      9519      9518      9521      9523
      9519      9518      9521      9524      9520      9518      9521      9522
      9520      9518      9521      9523      9520      9518      9521      9524
      9521      9524      9527      9528      9521      9524      9527      9529
      9521      9524      9527      9530      9522      9521      9524      9525
      9522      9521      9524      9526      9522      9521      9524      9527
      9523      9521      9524      9525      9523      9521      9524      9526
      9523      9521      9524      9527      9524      9527      9530      9531
      9524      9527      9530      9532      9524      9527      9530      9533
      9525      9524      9527      9528      9525      9524      9527      9529
      9525      9524      9527      9530      9526      9524      9527      9528
      9526      9524      9527      9529      9526      9524      9527      9530
      9527      9530      9533      9534      9527      9530      9533      9535
      9527      9530      9533      9536      9528      9527      9530      9531
      9528      9527      9530      9532      9528      9527      9530      9533
      9529      9527      9530      9531      9529      9527      9530      9532
      9529      9527      9530      9533      9530      9533      9536      9537
      9530      9533      9536      9538      9530      9533      9536      9539
      9531      9530      9533      9534      9531      9530      9533      9535
      9531      9530      9533      9536      9532      9530      9533      9534
      9532      9530      9533      9535      9532      9530      9533      9536
      9534      9533      9536      9537      9534      9533      9536      9538
      9534      9533      9536      9539      9535      9533      9536      9537
      9535      9533      9536      9538      9535      9533      9536      9539
      9540      9543      9546      9547      9540      9543      9546      9548
      9540      9543      9546      9549      9541      9540      9543      9544
      9541      9540      9543      9545      9541      9540      9543      9546
      9542      9540      9543      9544      9542      9540      9543      9545
      9542      9540      9543      9546      9543      9546      9549      9550
      9543      9546      9549      9551      9543      9546      9549      9552
      9544      9543      9546      9547      9544      9543      9546      9548
      9544      9543      9546      9549      9545      9543      9546      9547
      9545      9543      9546      9548      9545      9543      9546      9549
      9546      9549      9552      9553      9546      9549      9552      9554
      9546      9549      9552      9555      9547      9546      9549      9550
      9547      9546      9549      9551      9547      9546      9549      9552
      9548      9546      9549      9550      9548      9546      9549      9551
      9548      9546      9549      9552      9549      9552      9555      9556
      9549      9552      9555      9557      9549      9552      9555      9558
      9550      9549      9552      9553      9550      9549      9552      9554
      9550      9549      9552      9555      9551      9549      9552      9553
      9551      9549      9552      9554      9551      9549      9552      9555
      9552      9555      9558      9559      9552      9555      9558      9560
      9552      9555      9558      9561      9553      9552      9555      9556
      9553      9552      9555      9557      9553      9552      9555      9558
      9554      9552      9555      9556      9554      9552      9555      9557
      9554      9552      9555      9558      9555      9558      9561      9562
      9555      9558      9561      9563      9555      9558      9561      9564
      9556      9555      9558      9559      9556      9555      9558      9560
      9556      9555      9558      9561      9557      9555      9558      9559
      9557      9555      9558      9560      9557      9555      9558      9561
      9558      9561      9564      9565      9558      9561      9564      9566
      9558      9561      9564      9567      9559      9558      9561      9562
      9559      9558      9561      9563      9559      9558      9561      9564
      9560      9558      9561      9562      9560      9558      9561      9563
      9560      9558      9561      9564      9561      9564      9567      9568
      9561      9564      9567      9569      9561      9564      9567      9570
      9562      9561      9564      9565      9562      9561      9564      9566
      9562      9561      9564      9567      9563      9561      9564      9565
      9563      9561      9564      9566      9563      9561      9564      9567
      9564      9567      9570      9571      9564      9567      9570      9572
      9564      9567      9570      9573      9565      9564      9567      9568
      9565      9564      9567      9569      9565      9564      9567      9570
      9566      9564      9567      9568      9566      9564      9567      9569
      9566      9564      9567      9570      9567      9570      9573      9574
      9567      9570      9573      9575      9567      9570      9573      9576
      9568      9567      9570      9571      9568      9567      9570      9572
      9568      9567      9570      9573      9569      9567      9570      9571
      9569      9567      9570      9572      9569      9567      9570      9573
      9570      9573      9576      9577      9570      9573      9576      9578
      9570      9573      9576      9579      9571      9570      9573      9574
      9571      9570      9573      9575      9571      9570      9573      9576
      9572      9570      9573      9574      9572      9570      9573      9575
      9572      9570      9573      9576      9573      9576      9579      9580
      9573      9576      9579      9581      9573      9576      9579      9582
      9574      9573      9576      9577      9574      9573      9576      9578
      9574      9573      9576      9579      9575      9573      9576      9577
      9575      9573      9576      9578      9575      9573      9576      9579
      9577      9576      9579      9580      9577      9576      9579      9581
      9577      9576      9579      9582      9578      9576      9579      9580
      9578      9576      9579      9581      9578      9576      9579      9582
      9583      9584      9599      9600      9583      9584      9599      9601
      9583      9584      9599      9605      9584      9583      9587      9588
      9584      9583      9587      9589      9584      9583      9587      9590
      9584      9583      9591      9592      9584      9583      9591      9593
      9584      9583      9591      9594      9584      9583      9595      9596
      9584      9583      9595      9597      9584      9583      9595      9598
      9584      9599      9605      9602      9585      9584      9583      9587
      9585      9584      9583      9591      9585      9584      9583      9595
      9585      9584      9599      9600      9585      9584      9599      9601
      9585      9584      9599      9605      9586      9584      9583      9587
      9586      9584      9583      9591      9586      9584      9583      9595
      9586      9584      9599      9600      9586      9584      9599      9601
      9586      9584      9599      9605      9587      9583      9584      9599
      9587      9583      9591      9592      9587      9583      9591      9593
      9587      9583      9591      9594      9587      9583      9595      9596
      9587      9583      9595      9597      9587      9583      9595      9598
      9588      9587      9583      9591      9588      9587      9583      9595
      9589      9587      9583      9591      9589      9587      9583      9595
      9590      9587      9583      9591      9590      9587      9583      9595
      9591      9583      9584      9599      9591      9583      9595      9596
      9591      9583      9595      9597      9591      9583      9595      9598
      9592      9591      9583      9595      9593      9591      9583      9595
      9594      9591      9583      9595      9595      9583      9584      9599
      9599      9605      9602      9603      9599      9605      9602      9604
      9599      9605      9602      9606      9600      9599      9605      9602
      9601      9599      9605      9602      9602      9606      9607      9608
      9602      9606      9607      9609      9602      9606      9607      9610
      9603      9602      9606      9607      9604      9602      9606      9607
      9605      9602      9606      9607      9606      9607      9610      9611
      9606      9607      9610      9612      9606      9607      9610      9618
      9607      9610      9612      9613      9607      9610      9618      9619
      9607      9610      9618      9620      9607      9610      9618      9621
      9608      9607      9610      9611      9608      9607      9610      9612
      9608      9607      9610      9618      9609      9607      9610      9611
      9609      9607      9610      9612      9609      9607      9610      9618
      9610      9612      9613      9614      9610      9612      9613      9615
      9610      9618      9621      9622      9611      9610      9612      9613
      9611      9610      9618      9619      9611      9610      9618      9620
      9611      9610      9618      9621      9612      9610      9618      9619
      9612      9610      9618      9620      9612      9610      9618      9621
      9612      9613      9615      9616      9612      9613      9615      9617
      9612      9613      9615      9627      9613      9612      9610      9618
      9613      9615      9627      9628      9613      9615      9627      9629
      9613      9615      9627      9630      9614      9613      9615      9616
      9614      9613      9615      9617      9614      9613      9615      9627
      9615      9627      9630      9631      9615      9627      9630      9632
      9615      9627      9630      9633      9616      9615      9627      9628
      9616      9615      9627      9629      9616      9615      9627      9630
      9617      9615      9627      9628      9617      9615      9627      9629
      9617      9615      9627      9630      9618      9621      9622      9623
      9618      9621      9622      9624      9619      9618      9621      9622
      9620      9618      9621      9622      9621      9622      9624      9625
      9621      9622      9624      9626      9621      9622      9624      9674
      9622      9624      9674      9675      9622      9624      9674      9676
      9622      9624      9674      9677      9623      9622      9624      9625
      9623      9622      9624      9626      9623      9622      9624      9674
      9624      9674      9677      9678      9624      9674      9677      9679
      9624      9674      9677      9680      9625      9624      9674      9675
      9625      9624      9674      9676      9625      9624      9674      9677
      9626      9624      9674      9675      9626      9624      9674      9676
      9626      9624      9674      9677      9627      9630      9633      9634
      9627      9630      9633      9635      9627      9630      9633      9636
      9628      9627      9630      9631      9628      9627      9630      9632
      9628      9627      9630      9633      9629      9627      9630      9631
      9629      9627      9630      9632      9629      9627      9630      9633
      9630      9633      9636      9637      9630      9633      9636      9638
      9630      9633      9636      9639      9631      9630      9633      9634
      9631      9630      9633      9635      9631      9630      9633      9636
      9632      9630      9633      9634      9632      9630      9633      9635
      9632      9630      9633      9636      9633      9636      9639      9640
      9633      9636      9639      9641      9633      9636      9639      9642
      9634      9633      9636      9637      9634      9633      9636      9638
      9634      9633      9636      9639      9635      9633      9636      9637
      9635      9633      9636      9638      9635      9633      9636      9639
      9636      9639      9642      9643      9636      9639      9642      9644
      9636      9639      9642      9645      9637      9636      9639      9640
      9637      9636      9639      9641      9637      9636      9639      9642
      9638      9636      9639      9640      9638      9636      9639      9641
      9638      9636      9639      9642      9639      9642      9645      9646
      9639      9642      9645      9647      9640      9639      9642      9643
      9640      9639      9642      9644      9640      9639      9642      9645
      9641      9639      9642      9643      9641      9639      9642      9644
      9641      9639      9642      9645      9642      9645      9647      9648
      9642      9645      9647      9649      9643      9642      9645      9646
      9643      9642      9645      9647      9644      9642      9645      9646
      9644      9642      9645      9647      9645      9647      9649      9650
      9645      9647      9649      9651      9645      9647      9649      9652
      9646      9645      9647      9648      9646      9645      9647      9649
      9647      9649      9652      9653      9647      9649      9652      9654
      9647      9649      9652      9655      9648      9647      9649      9650
      9648      9647      9649      9651      9648      9647      9649      9652
      9649      9652      9655      9656      9649      9652      9655      9657
      9649      9652      9655      9658      9650      9649      9652      9653
      9650      9649      9652      9654      9650      9649      9652      9655
      9651      9649      9652      9653      9651      9649      9652      9654
      9651      9649      9652      9655      9652      9655      9658      9659
      9652      9655      9658      9660      9652      9655      9658      9661
      9653      9652      9655      9656      9653      9652      9655      9657
      9653      9652      9655      9658      9654      9652      9655      9656
      9654      9652      9655      9657      9654      9652      9655      9658
      9655      9658      9661      9662      9655      9658      9661      9663
      9655      9658      9661      9664      9656      9655      9658      9659
      9656      9655      9658      9660      9656      9655      9658      9661
      9657      9655      9658      9659      9657      9655      9658      9660
      9657      9655      9658      9661      9658      9661      9664      9665
      9658      9661      9664      9666      9658      9661      9664      9667
      9659      9658      9661      9662      9659      9658      9661      9663
      9659      9658      9661      9664      9660      9658      9661      9662
      9660      9658      9661      9663      9660      9658      9661      9664
      9661      9664      9667      9668      9661      9664      9667      9669
      9661      9664      9667      9670      9662      9661      9664      9665
      9662      9661      9664      9666      9662      9661      9664      9667
      9663      9661      9664      9665      9663      9661      9664      9666
      9663      9661      9664      9667      9664      9667      9670      9671
      9664      9667      9670      9672      9664      9667      9670      9673
      9665      9664      9667      9668      9665      9664      9667      9669
      9665      9664      9667      9670      9666      9664      9667      9668
      9666      9664      9667      9669      9666      9664      9667      9670
      9668      9667      9670      9671      9668      9667      9670      9672
      9668      9667      9670      9673      9669      9667      9670      9671
      9669      9667      9670      9672      9669      9667      9670      9673
      9674      9677      9680      9681      9674      9677      9680      9682
      9674      9677      9680      9683      9675      9674      9677      9678
      9675      9674      9677      9679      9675      9674      9677      9680
      9676      9674      9677      9678      9676      9674      9677      9679
      9676      9674      9677      9680      9677      9680      9683      9684
      9677      9680      9683      9685      9677      9680      9683      9686
      9678      9677      9680      9681      9678      9677      9680      9682
      9678      9677      9680      9683      9679      9677      9680      9681
      9679      9677      9680      9682      9679      9677      9680      9683
      9680      9683      9686      9687      9680      9683      9686      9688
      9680      9683      9686      9689      9681      9680      9683      9684
      9681      9680      9683      9685      9681      9680      9683      9686
      9682      9680      9683      9684      9682      9680      9683      9685
      9682      9680      9683      9686      9683      9686      9689      9690
      9683      9686      9689      9691      9683      9686      9689      9692
      9684      9683      9686      9687      9684      9683      9686      9688
      9684      9683      9686      9689      9685      9683      9686      9687
      9685      9683      9686      9688      9685      9683      9686      9689
      9686      9689      9692      9693      9686      9689      9692      9694
      9686      9689      9692      9695      9687      9686      9689      9690
      9687      9686      9689      9691      9687      9686      9689      9692
      9688      9686      9689      9690      9688      9686      9689      9691
      9688      9686      9689      9692      9689      9692      9695      9696
      9689      9692      9695      9697      9689      9692      9695      9698
      9690      9689      9692      9693      9690      9689      9692      9694
      9690      9689      9692      9695      9691      9689      9692      9693
      9691      9689      9692      9694      9691      9689      9692      9695
      9692      9695      9698      9699      9692      9695      9698      9700
      9692      9695      9698      9701      9693      9692      9695      9696
      9693      9692      9695      9697      9693      9692      9695      9698
      9694      9692      9695      9696      9694      9692      9695      9697
      9694      9692      9695      9698      9695      9698      9701      9702
      9695      9698      9701      9703      9695      9698      9701      9704
      9696      9695      9698      9699      9696      9695      9698      9700
      9696      9695      9698      9701      9697      9695      9698      9699
      9697      9695      9698      9700      9697      9695      9698      9701
      9698      9701      9704      9705      9698      9701      9704      9706
      9698      9701      9704      9707      9699      9698      9701      9702
      9699      9698      9701      9703      9699      9698      9701      9704
      9700      9698      9701      9702      9700      9698      9701      9703
      9700      9698      9701      9704      9701      9704      9707      9708
      9701      9704      9707      9709      9701      9704      9707      9710
      9702      9701      9704      9705      9702      9701      9704      9706
      9702      9701      9704      9707      9703      9701      9704      9705
      9703      9701      9704      9706      9703      9701      9704      9707
      9704      9707      9710      9711      9704      9707      9710      9712
      9704      9707      9710      9713      9705      9704      9707      9708
      9705      9704      9707      9709      9705      9704      9707      9710
      9706      9704      9707      9708      9706      9704      9707      9709
      9706      9704      9707      9710      9707      9710      9713      9714
      9707      9710      9713      9715      9707      9710      9713      9716
      9708      9707      9710      9711      9708      9707      9710      9712
      9708      9707      9710      9713      9709      9707      9710      9711
      9709      9707      9710      9712      9709      9707      9710      9713
      9711      9710      9713      9714      9711      9710      9713      9715
      9711      9710      9713      9716      9712      9710      9713      9714
      9712      9710      9713      9715      9712      9710      9713      9716
      9717      9718      9733      9734      9717      9718      9733      9735
      9717      9718      9733      9739      9718      9717      9721      9722
      9718      9717      9721      9723      9718      9717      9721      9724
      9718      9717      9725      9726      9718      9717      9725      9727
      9718      9717      9725      9728      9718      9717      9729      9730
      9718      9717      9729      9731      9718      9717      9729      9732
      9718      9733      9739      9736      9719      9718      9717      9721
      9719      9718      9717      9725      9719      9718      9717      9729
      9719      9718      9733      9734      9719      9718      9733      9735
      9719      9718      9733      9739      9720      9718      9717      9721
      9720      9718      9717      9725      9720      9718      9717      9729
      9720      9718      9733      9734      9720      9718      9733      9735
      9720      9718      9733      9739      9721      9717      9718      9733
      9721      9717      9725      9726      9721      9717      9725      9727
      9721      9717      9725      9728      9721      9717      9729      9730
      9721      9717      9729      9731      9721      9717      9729      9732
      9722      9721      9717      9725      9722      9721      9717      9729
      9723      9721      9717      9725      9723      9721      9717      9729
      9724      9721      9717      9725      9724      9721      9717      9729
      9725      9717      9718      9733      9725      9717      9729      9730
      9725      9717      9729      9731      9725      9717      9729      9732
      9726      9725      9717      9729      9727      9725      9717      9729
      9728      9725      9717      9729      9729      9717      9718      9733
      9733      9739      9736      9737      9733      9739      9736      9738
      9733      9739      9736      9740      9734      9733      9739      9736
      9735      9733      9739      9736      9736      9740      9741      9742
      9736      9740      9741      9743      9736      9740      9741      9744
      9737      9736      9740      9741      9738      9736      9740      9741
      9739      9736      9740      9741      9740      9741      9744      9745
      9740      9741      9744      9746      9740      9741      9744      9752
      9741      9744      9746      9747      9741      9744      9752      9753
      9741      9744      9752      9754      9741      9744      9752      9755
      9742      9741      9744      9745      9742      9741      9744      9746
      9742      9741      9744      9752      9743      9741      9744      9745
      9743      9741      9744      9746      9743      9741      9744      9752
      9744      9746      9747      9748      9744      9746      9747      9749
      9744      9752      9755      9756      9745      9744      9746      9747
      9745      9744      9752      9753      9745      9744      9752      9754
      9745      9744      9752      9755      9746      9744      9752      9753
      9746      9744      9752      9754      9746      9744      9752      9755
      9746      9747      9749      9750      9746      9747      9749      9751
      9746      9747      9749      9761      9747      9746      9744      9752
      9747      9749      9761      9762      9747      9749      9761      9763
      9747      9749      9761      9764      9748      9747      9749      9750
      9748      9747      9749      9751      9748      9747      9749      9761
      9749      9761      9764      9765      9749      9761      9764      9766
      9749      9761      9764      9767      9750      9749      9761      9762
      9750      9749      9761      9763      9750      9749      9761      9764
      9751      9749      9761      9762      9751      9749      9761      9763
      9751      9749      9761      9764      9752      9755      9756      9757
      9752      9755      9756      9758      9753      9752      9755      9756
      9754      9752      9755      9756      9755      9756      9758      9759
      9755      9756      9758      9760      9755      9756      9758      9808
      9756      9758      9808      9809      9756      9758      9808      9810
      9756      9758      9808      9811      9757      9756      9758      9759
      9757      9756      9758      9760      9757      9756      9758      9808
      9758      9808      9811      9812      9758      9808      9811      9813
      9758      9808      9811      9814      9759      9758      9808      9809
      9759      9758      9808      9810      9759      9758      9808      9811
      9760      9758      9808      9809      9760      9758      9808      9810
      9760      9758      9808      9811      9761      9764      9767      9768
      9761      9764      9767      9769      9761      9764      9767      9770
      9762      9761      9764      9765      9762      9761      9764      9766
      9762      9761      9764      9767      9763      9761      9764      9765
      9763      9761      9764      9766      9763      9761      9764      9767
      9764      9767      9770      9771      9764      9767      9770      9772
      9764      9767      9770      9773      9765      9764      9767      9768
      9765      9764      9767      9769      9765      9764      9767      9770
      9766      9764      9767      9768      9766      9764      9767      9769
      9766      9764      9767      9770      9767      9770      9773      9774
      9767      9770      9773      9775      9767      9770      9773      9776
      9768      9767      9770      9771      9768      9767      9770      9772
      9768      9767      9770      9773      9769      9767      9770      9771
      9769      9767      9770      9772      9769      9767      9770      9773
      9770      9773      9776      9777      9770      9773      9776      9778
      9770      9773      9776      9779      9771      9770      9773      9774
      9771      9770      9773      9775      9771      9770      9773      9776
      9772      9770      9773      9774      9772      9770      9773      9775
      9772      9770      9773      9776      9773      9776      9779      9780
      9773      9776      9779      9781      9774      9773      9776      9777
      9774      9773      9776      9778      9774      9773      9776      9779
      9775      9773      9776      9777      9775      9773      9776      9778
      9775      9773      9776      9779      9776      9779      9781      9782
      9776      9779      9781      9783      9777      9776      9779      9780
      9777      9776      9779      9781      9778      9776      9779      9780
      9778      9776      9779      9781      9779      9781      9783      9784
      9779      9781      9783      9785      9779      9781      9783      9786
      9780      9779      9781      9782      9780      9779      9781      9783
      9781      9783      9786      9787      9781      9783      9786      9788
      9781      9783      9786      9789      9782      9781      9783      9784
      9782      9781      9783      9785      9782      9781      9783      9786
      9783      9786      9789      9790      9783      9786      9789      9791
      9783      9786      9789      9792      9784      9783      9786      9787
      9784      9783      9786      9788      9784      9783      9786      9789
      9785      9783      9786      9787      9785      9783      9786      9788
      9785      9783      9786      9789      9786      9789      9792      9793
      9786      9789      9792      9794      9786      9789      9792      9795
      9787      9786      9789      9790      9787      9786      9789      9791
      9787      9786      9789      9792      9788      9786      9789      9790
      9788      9786      9789      9791      9788      9786      9789      9792
      9789      9792      9795      9796      9789      9792      9795      9797
      9789      9792      9795      9798      9790      9789      9792      9793
      9790      9789      9792      9794      9790      9789      9792      9795
      9791      9789      9792      9793      9791      9789      9792      9794
      9791      9789      9792      9795      9792      9795      9798      9799
      9792      9795      9798      9800      9792      9795      9798      9801
      9793      9792      9795      9796      9793      9792      9795      9797
      9793      9792      9795      9798      9794      9792      9795      9796
      9794      9792      9795      9797      9794      9792      9795      9798
      9795      9798      9801      9802      9795      9798      9801      9803
      9795      9798      9801      9804      9796      9795      9798      9799
      9796      9795      9798      9800      9796      9795      9798      9801
      9797      9795      9798      9799      9797      9795      9798      9800
      9797      9795      9798      9801      9798      9801      9804      9805
      9798      9801      9804      9806      9798      9801      9804      9807
      9799      9798      9801      9802      9799      9798      9801      9803
      9799      9798      9801      9804      9800      9798      9801      9802
      9800      9798      9801      9803      9800      9798      9801      9804
      9802      9801      9804      9805      9802      9801      9804      9806
      9802      9801      9804      9807      9803      9801      9804      9805
      9803      9801      9804      9806      9803      9801      9804      9807
      9808      9811      9814      9815      9808      9811      9814      9816
      9808      9811      9814      9817      9809      9808      9811      9812
      9809      9808      9811      9813      9809      9808      9811      9814
      9810      9808      9811      9812      9810      9808      9811      9813
      9810      9808      9811      9814      9811      9814      9817      9818
      9811      9814      9817      9819      9811      9814      9817      9820
      9812      9811      9814      9815      9812      9811      9814      9816
      9812      9811      9814      9817      9813      9811      9814      9815
      9813      9811      9814      9816      9813      9811      9814      9817
      9814      9817      9820      9821      9814      9817      9820      9822
      9814      9817      9820      9823      9815      9814      9817      9818
      9815      9814      9817      9819      9815      9814      9817      9820
      9816      9814      9817      9818      9816      9814      9817      9819
      9816      9814      9817      9820      9817      9820      9823      9824
      9817      9820      9823      9825      9817      9820      9823      9826
      9818      9817      9820      9821      9818      9817      9820      9822
      9818      9817      9820      9823      9819      9817      9820      9821
      9819      9817      9820      9822      9819      9817      9820      9823
      9820      9823      9826      9827      9820      9823      9826      9828
      9820      9823      9826      9829      9821      9820      9823      9824
      9821      9820      9823      9825      9821      9820      9823      9826
      9822      9820      9823      9824      9822      9820      9823      9825
      9822      9820      9823      9826      9823      9826      9829      9830
      9823      9826      9829      9831      9823      9826      9829      9832
      9824      9823      9826      9827      9824      9823      9826      9828
      9824      9823      9826      9829      9825      9823      9826      9827
      9825      9823      9826      9828      9825      9823      9826      9829
      9826      9829      9832      9833      9826      9829      9832      9834
      9826      9829      9832      9835      9827      9826      9829      9830
      9827      9826      9829      9831      9827      9826      9829      9832
      9828      9826      9829      9830      9828      9826      9829      9831
      9828      9826      9829      9832      9829      9832      9835      9836
      9829      9832      9835      9837      9829      9832      9835      9838
      9830      9829      9832      9833      9830      9829      9832      9834
      9830      9829      9832      9835      9831      9829      9832      9833
      9831      9829      9832      9834      9831      9829      9832      9835
      9832      9835      9838      9839      9832      9835      9838      9840
      9832      9835      9838      9841      9833      9832      9835      9836
      9833      9832      9835      9837      9833      9832      9835      9838
      9834      9832      9835      9836      9834      9832      9835      9837
      9834      9832      9835      9838      9835      9838      9841      9842
      9835      9838      9841      9843      9835      9838      9841      9844
      9836      9835      9838      9839      9836      9835      9838      9840
      9836      9835      9838      9841      9837      9835      9838      9839
      9837      9835      9838      9840      9837      9835      9838      9841
      9838      9841      9844      9845      9838      9841      9844      9846
      9838      9841      9844      9847      9839      9838      9841      9842
      9839      9838      9841      9843      9839      9838      9841      9844
      9840      9838      9841      9842      9840      9838      9841      9843
      9840      9838      9841      9844      9841      9844      9847      9848
      9841      9844      9847      9849      9841      9844      9847      9850
      9842      9841      9844      9845      9842      9841      9844      9846
      9842      9841      9844      9847      9843      9841      9844      9845
      9843      9841      9844      9846      9843      9841      9844      9847
      9845      9844      9847      9848      9845      9844      9847      9849
      9845      9844      9847      9850      9846      9844      9847      9848
      9846      9844      9847      9849      9846      9844      9847      9850
      9851      9852      9867      9868      9851      9852      9867      9869
      9851      9852      9867      9873      9852      9851      9855      9856
      9852      9851      9855      9857      9852      9851      9855      9858
      9852      9851      9859      9860      9852      9851      9859      9861
      9852      9851      9859      9862      9852      9851      9863      9864
      9852      9851      9863      9865      9852      9851      9863      9866
      9852      9867      9873      9870      9853      9852      9851      9855
      9853      9852      9851      9859      9853      9852      9851      9863
      9853      9852      9867      9868      9853      9852      9867      9869
      9853      9852      9867      9873      9854      9852      9851      9855
      9854      9852      9851      9859      9854      9852      9851      9863
      9854      9852      9867      9868      9854      9852      9867      9869
      9854      9852      9867      9873      9855      9851      9852      9867
      9855      9851      9859      9860      9855      9851      9859      9861
      9855      9851      9859      9862      9855      9851      9863      9864
      9855      9851      9863      9865      9855      9851      9863      9866
      9856      9855      9851      9859      9856      9855      9851      9863
      9857      9855      9851      9859      9857      9855      9851      9863
      9858      9855      9851      9859      9858      9855      9851      9863
      9859      9851      9852      9867      9859      9851      9863      9864
      9859      9851      9863      9865      9859      9851      9863      9866
      9860      9859      9851      9863      9861      9859      9851      9863
      9862      9859      9851      9863      9863      9851      9852      9867
      9867      9873      9870      9871      9867      9873      9870      9872
      9867      9873      9870      9874      9868      9867      9873      9870
      9869      9867      9873      9870      9870      9874      9875      9876
      9870      9874      9875      9877      9870      9874      9875      9878
      9871      9870      9874      9875      9872      9870      9874      9875
      9873      9870      9874      9875      9874      9875      9878      9879
      9874      9875      9878      9880      9874      9875      9878      9886
      9875      9878      9880      9881      9875      9878      9886      9887
      9875      9878      9886      9888      9875      9878      9886      9889
      9876      9875      9878      9879      9876      9875      9878      9880
      9876      9875      9878      9886      9877      9875      9878      9879
      9877      9875      9878      9880      9877      9875      9878      9886
      9878      9880      9881      9882      9878      9880      9881      9883
      9878      9886      9889      9890      9879      9878      9880      9881
      9879      9878      9886      9887      9879      9878      9886      9888
      9879      9878      9886      9889      9880      9878      9886      9887
      9880      9878      9886      9888      9880      9878      9886      9889
      9880      9881      9883      9884      9880      9881      9883      9885
      9880      9881      9883      9895      9881      9880      9878      9886
      9881      9883      9895      9896      9881      9883      9895      9897
      9881      9883      9895      9898      9882      9881      9883      9884
      9882      9881      9883      9885      9882      9881      9883      9895
      9883      9895      9898      9899      9883      9895      9898      9900
      9883      9895      9898      9901      9884      9883      9895      9896
      9884      9883      9895      9897      9884      9883      9895      9898
      9885      9883      9895      9896      9885      9883      9895      9897
      9885      9883      9895      9898      9886      9889      9890      9891
      9886      9889      9890      9892      9887      9886      9889      9890
      9888      9886      9889      9890      9889      9890      9892      9893
      9889      9890      9892      9894      9889      9890      9892      9942
      9890      9892      9942      9943      9890      9892      9942      9944
      9890      9892      9942      9945      9891      9890      9892      9893
      9891      9890      9892      9894      9891      9890      9892      9942
      9892      9942      9945      9946      9892      9942      9945      9947
      9892      9942      9945      9948      9893      9892      9942      9943
      9893      9892      9942      9944      9893      9892      9942      9945
      9894      9892      9942      9943      9894      9892      9942      9944
      9894      9892      9942      9945      9895      9898      9901      9902
      9895      9898      9901      9903      9895      9898      9901      9904
      9896      9895      9898      9899      9896      9895      9898      9900
      9896      9895      9898      9901      9897      9895      9898      9899
      9897      9895      9898      9900      9897      9895      9898      9901
      9898      9901      9904      9905      9898      9901      9904      9906
      9898      9901      9904      9907      9899      9898      9901      9902
      9899      9898      9901      9903      9899      9898      9901      9904
      9900      9898      9901      9902      9900      9898      9901      9903
      9900      9898      9901      9904      9901      9904      9907      9908
      9901      9904      9907      9909      9901      9904      9907      9910
      9902      9901      9904      9905      9902      9901      9904      9906
      9902      9901      9904      9907      9903      9901      9904      9905
      9903      9901      9904      9906      9903      9901      9904      9907
      9904      9907      9910      9911      9904      9907      9910      9912
      9904      9907      9910      9913      9905      9904      9907      9908
      9905      9904      9907      9909      9905      9904      9907      9910
      9906      9904      9907      9908      9906      9904      9907      9909
      9906      9904      9907      9910      9907      9910      9913      9914
      9907      9910      9913      9915      9908      9907      9910      9911
      9908      9907      9910      9912      9908      9907      9910      9913
      9909      9907      9910      9911      9909      9907      9910      9912
      9909      9907      9910      9913      9910      9913      9915      9916
      9910      9913      9915      9917      9911      9910      9913      9914
      9911      9910      9913      9915      9912      9910      9913      9914
      9912      9910      9913      9915      9913      9915      9917      9918
      9913      9915      9917      9919      9913      9915      9917      9920
      9914      9913      9915      9916      9914      9913      9915      9917
      9915      9917      9920      9921      9915      9917      9920      9922
      9915      9917      9920      9923      9916      9915      9917      9918
      9916      9915      9917      9919      9916      9915      9917      9920
      9917      9920      9923      9924      9917      9920      9923      9925
      9917      9920      9923      9926      9918      9917      9920      9921
      9918      9917      9920      9922      9918      9917      9920      9923
      9919      9917      9920      9921      9919      9917      9920      9922
      9919      9917      9920      9923      9920      9923      9926      9927
      9920      9923      9926      9928      9920      9923      9926      9929
      9921      9920      9923      9924      9921      9920      9923      9925
      9921      9920      9923      9926      9922      9920      9923      9924
      9922      9920      9923      9925      9922      9920      9923      9926
      9923      9926      9929      9930      9923      9926      9929      9931
      9923      9926      9929      9932      9924      9923      9926      9927
      9924      9923      9926      9928      9924      9923      9926      9929
      9925      9923      9926      9927      9925      9923      9926      9928
      9925      9923      9926      9929      9926      9929      9932      9933
      9926      9929      9932      9934      9926      9929      9932      9935
      9927      9926      9929      9930      9927      9926      9929      9931
      9927      9926      9929      9932      9928      9926      9929      9930
      9928      9926      9929      9931      9928      9926      9929      9932
      9929      9932      9935      9936      9929      9932      9935      9937
      9929      9932      9935      9938      9930      9929      9932      9933
      9930      9929      9932      9934      9930      9929      9932      9935
      9931      9929      9932      9933      9931      9929      9932      9934
      9931      9929      9932      9935      9932      9935      9938      9939
      9932      9935      9938      9940      9932      9935      9938      9941
      9933      9932      9935      9936      9933      9932      9935      9937
      9933      9932      9935      9938      9934      9932      9935      9936
      9934      9932      9935      9937      9934      9932      9935      9938
      9936      9935      9938      9939      9936      9935      9938      9940
      9936      9935      9938      9941      9937      9935      9938      9939
      9937      9935      9938      9940      9937      9935      9938      9941
      9942      9945      9948      9949      9942      9945      9948      9950
      9942      9945      9948      9951      9943      9942      9945      9946
      9943      9942      9945      9947      9943      9942      9945      9948
      9944      9942      9945      9946      9944      9942      9945      9947
      9944      9942      9945      9948      9945      9948      9951      9952
      9945      9948      9951      9953      9945      9948      9951      9954
      9946      9945      9948      9949      9946      9945      9948      9950
      9946      9945      9948      9951      9947      9945      9948      9949
      9947      9945      9948      9950      9947      9945      9948      9951
      9948      9951      9954      9955      9948      9951      9954      9956
      9948      9951      9954      9957      9949      9948      9951      9952
      9949      9948      9951      9953      9949      9948      9951      9954
      9950      9948      9951      9952      9950      9948      9951      9953
      9950      9948      9951      9954      9951      9954      9957      9958
      9951      9954      9957      9959      9951      9954      9957      9960
      9952      9951      9954      9955      9952      9951      9954      9956
      9952      9951      9954      9957      9953      9951      9954      9955
      9953      9951      9954      9956      9953      9951      9954      9957
      9954      9957      9960      9961      9954      9957      9960      9962
      9954      9957      9960      9963      9955      9954      9957      9958
      9955      9954      9957      9959      9955      9954      9957      9960
      9956      9954      9957      9958      9956      9954      9957      9959
      9956      9954      9957      9960      9957      9960      9963      9964
      9957      9960      9963      9965      9957      9960      9963      9966
      9958      9957      9960      9961      9958      9957      9960      9962
      9958      9957      9960      9963      9959      9957      9960      9961
      9959      9957      9960      9962      9959      9957      9960      9963
      9960      9963      9966      9967      9960      9963      9966      9968
      9960      9963      9966      9969      9961      9960      9963      9964
      9961      9960      9963      9965      9961      9960      9963      9966
      9962      9960      9963      9964      9962      9960      9963      9965
      9962      9960      9963      9966      9963      9966      9969      9970
      9963      9966      9969      9971      9963      9966      9969      9972
      9964      9963      9966      9967      9964      9963      9966      9968
      9964      9963      9966      9969      9965      9963      9966      9967
      9965      9963      9966      9968      9965      9963      9966      9969
      9966      9969      9972      9973      9966      9969      9972      9974
      9966      9969      9972      9975      9967      9966      9969      9970
      9967      9966      9969      9971      9967      9966      9969      9972
      9968      9966      9969      9970      9968      9966      9969      9971
      9968      9966      9969      9972      9969      9972      9975      9976
      9969      9972      9975      9977      9969      9972      9975      9978
      9970      9969      9972      9973      9970      9969      9972      9974
      9970      9969      9972      9975      9971      9969      9972      9973
      9971      9969      9972      9974      9971      9969      9972      9975
      9972      9975      9978      9979      9972      9975      9978      9980
      9972      9975      9978      9981      9973      9972      9975      9976
      9973      9972      9975      9977      9973      9972      9975      9978
      9974      9972      9975      9976      9974      9972      9975      9977
      9974      9972      9975      9978      9975      9978      9981      9982
      9975      9978      9981      9983      9975      9978      9981      9984
      9976      9975      9978      9979      9976      9975      9978      9980
      9976      9975      9978      9981      9977      9975      9978      9979
      9977      9975      9978      9980      9977      9975      9978      9981
      9979      9978      9981      9982      9979      9978      9981      9983
      9979      9978      9981      9984      9980      9978      9981      9982
      9980      9978      9981      9983      9980      9978      9981      9984
      9985      9986     10001     10002      9985      9986     10001     10003
      9985      9986     10001     10007      9986      9985      9989      9990
      9986      9985      9989      9991      9986      9985      9989      9992
      9986      9985      9993      9994      9986      9985      9993      9995
      9986      9985      9993      9996      9986      9985      9997      9998
      9986      9985      9997      9999      9986      9985      9997     10000
      9986     10001     10007     10004      9987      9986      9985      9989
      9987      9986      9985      9993      9987      9986      9985      9997
      9987      9986     10001     10002      9987      9986     10001     10003
      9987      9986     10001     10007      9988      9986      9985      9989
      9988      9986      9985      9993      9988      9986      9985      9997
      9988      9986     10001     10002      9988      9986     10001     10003
      9988      9986     10001     10007      9989      9985      9986     10001
      9989      9985      9993      9994      9989      9985      9993      9995
      9989      9985      9993      9996      9989      9985      9997      9998
      9989      9985      9997      9999      9989      9985      9997     10000
      9990      9989      9985      9993      9990      9989      9985      9997
      9991      9989      9985      9993      9991      9989      9985      9997
      9992      9989      9985      9993      9992      9989      9985      9997
      9993      9985      9986     10001      9993      9985      9997      9998
      9993      9985      9997      9999      9993      9985      9997     10000
      9994      9993      9985      9997      9995      9993      9985      9997
      9996      9993      9985      9997      9997      9985      9986     10001
     10001     10007     10004     10005     10001     10007     10004     10006
     10001     10007     10004     10008     10002     10001     10007     10004
     10003     10001     10007     10004     10004     10008     10009     10010
     10004     10008     10009     10011     10004     10008     10009     10012
     10005     10004     10008     10009     10006     10004     10008     10009
     10007     10004     10008     10009     10008     10009     10012     10013
     10008     10009     10012     10014     10008     10009     10012     10020
     10009     10012     10014     10015     10009     10012     10020     10021
     10009     10012     10020     10022     10009     10012     10020     10023
     10010     10009     10012     10013     10010     10009     10012     10014
     10010     10009     10012     10020     10011     10009     10012     10013
     10011     10009     10012     10014     10011     10009     10012     10020
     10012     10014     10015     10016     10012     10014     10015     10017
     10012     10020     10023     10024     10013     10012     10014     10015
     10013     10012     10020     10021     10013     10012     10020     10022
     10013     10012     10020     10023     10014     10012     10020     10021
     10014     10012     10020     10022     10014     10012     10020     10023
     10014     10015     10017     10018     10014     10015     10017     10019
     10014     10015     10017     10029     10015     10014     10012     10020
     10015     10017     10029     10030     10015     10017     10029     10031
     10015     10017     10029     10032     10016     10015     10017     10018
     10016     10015     10017     10019     10016     10015     10017     10029
     10017     10029     10032     10033     10017     10029     10032     10034
     10017     10029     10032     10035     10018     10017     10029     10030
     10018     10017     10029     10031     10018     10017     10029     10032
     10019     10017     10029     10030     10019     10017     10029     10031
     10019     10017     10029     10032     10020     10023     10024     10025
     10020     10023     10024     10026     10021     10020     10023     10024
     10022     10020     10023     10024     10023     10024     10026     10027
     10023     10024     10026     10028     10023     10024     10026     10076
     10024     10026     10076     10077     10024     10026     10076     10078
     10024     10026     10076     10079     10025     10024     10026     10027
     10025     10024     10026     10028     10025     10024     10026     10076
     10026     10076     10079     10080     10026     10076     10079     10081
     10026     10076     10079     10082     10027     10026     10076     10077
     10027     10026     10076     10078     10027     10026     10076     10079
     10028     10026     10076     10077     10028     10026     10076     10078
     10028     10026     10076     10079     10029     10032     10035     10036
     10029     10032     10035     10037     10029     10032     10035     10038
     10030     10029     10032     10033     10030     10029     10032     10034
     10030     10029     10032     10035     10031     10029     10032     10033
     10031     10029     10032     10034     10031     10029     10032     10035
     10032     10035     10038     10039     10032     10035     10038     10040
     10032     10035     10038     10041     10033     10032     10035     10036
     10033     10032     10035     10037     10033     10032     10035     10038
     10034     10032     10035     10036     10034     10032     10035     10037
     10034     10032     10035     10038     10035     10038     10041     10042
     10035     10038     10041     10043     10035     10038     10041     10044
     10036     10035     10038     10039     10036     10035     10038     10040
     10036     10035     10038     10041     10037     10035     10038     10039
     10037     10035     10038     10040     10037     10035     10038     10041
     10038     10041     10044     10045     10038     10041     10044     10046
     10038     10041     10044     10047     10039     10038     10041     10042
     10039     10038     10041     10043     10039     10038     10041     10044
     10040     10038     10041     10042     10040     10038     10041     10043
     10040     10038     10041     10044     10041     10044     10047     10048
     10041     10044     10047     10049     10042     10041     10044     10045
     10042     10041     10044     10046     10042     10041     10044     10047
     10043     10041     10044     10045     10043     10041     10044     10046
     10043     10041     10044     10047     10044     10047     10049     10050
     10044     10047     10049     10051     10045     10044     10047     10048
     10045     10044     10047     10049     10046     10044     10047     10048
     10046     10044     10047     10049     10047     10049     10051     10052
     10047     10049     10051     10053     10047     10049     10051     10054
     10048     10047     10049     10050     10048     10047     10049     10051
     10049     10051     10054     10055     10049     10051     10054     10056
     10049     10051     10054     10057     10050     10049     10051     10052
     10050     10049     10051     10053     10050     10049     10051     10054
     10051     10054     10057     10058     10051     10054     10057     10059
     10051     10054     10057     10060     10052     10051     10054     10055
     10052     10051     10054     10056     10052     10051     10054     10057
     10053     10051     10054     10055     10053     10051     10054     10056
     10053     10051     10054     10057     10054     10057     10060     10061
     10054     10057     10060     10062     10054     10057     10060     10063
     10055     10054     10057     10058     10055     10054     10057     10059
     10055     10054     10057     10060     10056     10054     10057     10058
     10056     10054     10057     10059     10056     10054     10057     10060
     10057     10060     10063     10064     10057     10060     10063     10065
     10057     10060     10063     10066     10058     10057     10060     10061
     10058     10057     10060     10062     10058     10057     10060     10063
     10059     10057     10060     10061     10059     10057     10060     10062
     10059     10057     10060     10063     10060     10063     10066     10067
     10060     10063     10066     10068     10060     10063     10066     10069
     10061     10060     10063     10064     10061     10060     10063     10065
     10061     10060     10063     10066     10062     10060     10063     10064
     10062     10060     10063     10065     10062     10060     10063     10066
     10063     10066     10069     10070     10063     10066     10069     10071
     10063     10066     10069     10072     10064     10063     10066     10067
     10064     10063     10066     10068     10064     10063     10066     10069
     10065     10063     10066     10067     10065     10063     10066     10068
     10065     10063     10066     10069     10066     10069     10072     10073
     10066     10069     10072     10074     10066     10069     10072     10075
     10067     10066     10069     10070     10067     10066     10069     10071
     10067     10066     10069     10072     10068     10066     10069     10070
     10068     10066     10069     10071     10068     10066     10069     10072
     10070     10069     10072     10073     10070     10069     10072     10074
     10070     10069     10072     10075     10071     10069     10072     10073
     10071     10069     10072     10074     10071     10069     10072     10075
     10076     10079     10082     10083     10076     10079     10082     10084
     10076     10079     10082     10085     10077     10076     10079     10080
     10077     10076     10079     10081     10077     10076     10079     10082
     10078     10076     10079     10080     10078     10076     10079     10081
     10078     10076     10079     10082     10079     10082     10085     10086
     10079     10082     10085     10087     10079     10082     10085     10088
     10080     10079     10082     10083     10080     10079     10082     10084
     10080     10079     10082     10085     10081     10079     10082     10083
     10081     10079     10082     10084     10081     10079     10082     10085
     10082     10085     10088     10089     10082     10085     10088     10090
     10082     10085     10088     10091     10083     10082     10085     10086
     10083     10082     10085     10087     10083     10082     10085     10088
     10084     10082     10085     10086     10084     10082     10085     10087
     10084     10082     10085     10088     10085     10088     10091     10092
     10085     10088     10091     10093     10085     10088     10091     10094
     10086     10085     10088     10089     10086     10085     10088     10090
     10086     10085     10088     10091     10087     10085     10088     10089
     10087     10085     10088     10090     10087     10085     10088     10091
     10088     10091     10094     10095     10088     10091     10094     10096
     10088     10091     10094     10097     10089     10088     10091     10092
     10089     10088     10091     10093     10089     10088     10091     10094
     10090     10088     10091     10092     10090     10088     10091     10093
     10090     10088     10091     10094     10091     10094     10097     10098
     10091     10094     10097     10099     10091     10094     10097     10100
     10092     10091     10094     10095     10092     10091     10094     10096
     10092     10091     10094     10097     10093     10091     10094     10095
     10093     10091     10094     10096     10093     10091     10094     10097
     10094     10097     10100     10101     10094     10097     10100     10102
     10094     10097     10100     10103     10095     10094     10097     10098
     10095     10094     10097     10099     10095     10094     10097     10100
     10096     10094     10097     10098     10096     10094     10097     10099
     10096     10094     10097     10100     10097     10100     10103     10104
     10097     10100     10103     10105     10097     10100     10103     10106
     10098     10097     10100     10101     10098     10097     10100     10102
     10098     10097     10100     10103     10099     10097     10100     10101
     10099     10097     10100     10102     10099     10097     10100     10103
     10100     10103     10106     10107     10100     10103     10106     10108
     10100     10103     10106     10109     10101     10100     10103     10104
     10101     10100     10103     10105     10101     10100     10103     10106
     10102     10100     10103     10104     10102     10100     10103     10105
     10102     10100     10103     10106     10103     10106     10109     10110
     10103     10106     10109     10111     10103     10106     10109     10112
     10104     10103     10106     10107     10104     10103     10106     10108
     10104     10103     10106     10109     10105     10103     10106     10107
     10105     10103     10106     10108     10105     10103     10106     10109
     10106     10109     10112     10113     10106     10109     10112     10114
     10106     10109     10112     10115     10107     10106     10109     10110
     10107     10106     10109     10111     10107     10106     10109     10112
     10108     10106     10109     10110     10108     10106     10109     10111
     10108     10106     10109     10112     10109     10112     10115     10116
     10109     10112     10115     10117     10109     10112     10115     10118
     10110     10109     10112     10113     10110     10109     10112     10114
     10110     10109     10112     10115     10111     10109     10112     10113
     10111     10109     10112     10114     10111     10109     10112     10115
     10113     10112     10115     10116     10113     10112     10115     10117
     10113     10112     10115     10118     10114     10112     10115     10116
     10114     10112     10115     10117     10114     10112     10115     10118
     10119     10120     10135     10136     10119     10120     10135     10137
     10119     10120     10135     10141     10120     10119     10123     10124
     10120     10119     10123     10125     10120     10119     10123     10126
     10120     10119     10127     10128     10120     10119     10127     10129
     10120     10119     10127     10130     10120     10119     10131     10132
     10120     10119     10131     10133     10120     10119     10131     10134
     10120     10135     10141     10138     10121     10120     10119     10123
     10121     10120     10119     10127     10121     10120     10119     10131
     10121     10120     10135     10136     10121     10120     10135     10137
     10121     10120     10135     10141     10122     10120     10119     10123
     10122     10120     10119     10127     10122     10120     10119     10131
     10122     10120     10135     10136     10122     10120     10135     10137
     10122     10120     10135     10141     10123     10119     10120     10135
     10123     10119     10127     10128     10123     10119     10127     10129
     10123     10119     10127     10130     10123     10119     10131     10132
     10123     10119     10131     10133     10123     10119     10131     10134
     10124     10123     10119     10127     10124     10123     10119     10131
     10125     10123     10119     10127     10125     10123     10119     10131
     10126     10123     10119     10127     10126     10123     10119     10131
     10127     10119     10120     10135     10127     10119     10131     10132
     10127     10119     10131     10133     10127     10119     10131     10134
     10128     10127     10119     10131     10129     10127     10119     10131
     10130     10127     10119     10131     10131     10119     10120     10135
     10135     10141     10138     10139     10135     10141     10138     10140
     10135     10141     10138     10142     10136     10135     10141     10138
     10137     10135     10141     10138     10138     10142     10143     10144
     10138     10142     10143     10145     10138     10142     10143     10146
     10139     10138     10142     10143     10140     10138     10142     10143
     10141     10138     10142     10143     10142     10143     10146     10147
     10142     10143     10146     10148     10142     10143     10146     10154
     10143     10146     10148     10149     10143     10146     10154     10155
     10143     10146     10154     10156     10143     10146     10154     10157
     10144     10143     10146     10147     10144     10143     10146     10148
     10144     10143     10146     10154     10145     10143     10146     10147
     10145     10143     10146     10148     10145     10143     10146     10154
     10146     10148     10149     10150     10146     10148     10149     10151
     10146     10154     10157     10158     10147     10146     10148     10149
     10147     10146     10154     10155     10147     10146     10154     10156
     10147     10146     10154     10157     10148     10146     10154     10155
     10148     10146     10154     10156     10148     10146     10154     10157
     10148     10149     10151     10152     10148     10149     10151     10153
     10148     10149     10151     10163     10149     10148     10146     10154
     10149     10151     10163     10164     10149     10151     10163     10165
     10149     10151     10163     10166     10150     10149     10151     10152
     10150     10149     10151     10153     10150     10149     10151     10163
     10151     10163     10166     10167     10151     10163     10166     10168
     10151     10163     10166     10169     10152     10151     10163     10164
     10152     10151     10163     10165     10152     10151     10163     10166
     10153     10151     10163     10164     10153     10151     10163     10165
     10153     10151     10163     10166     10154     10157     10158     10159
     10154     10157     10158     10160     10155     10154     10157     10158
     10156     10154     10157     10158     10157     10158     10160     10161
     10157     10158     10160     10162     10157     10158     10160     10210
     10158     10160     10210     10211     10158     10160     10210     10212
     10158     10160     10210     10213     10159     10158     10160     10161
     10159     10158     10160     10162     10159     10158     10160     10210
     10160     10210     10213     10214     10160     10210     10213     10215
     10160     10210     10213     10216     10161     10160     10210     10211
     10161     10160     10210     10212     10161     10160     10210     10213
     10162     10160     10210     10211     10162     10160     10210     10212
     10162     10160     10210     10213     10163     10166     10169     10170
     10163     10166     10169     10171     10163     10166     10169     10172
     10164     10163     10166     10167     10164     10163     10166     10168
     10164     10163     10166     10169     10165     10163     10166     10167
     10165     10163     10166     10168     10165     10163     10166     10169
     10166     10169     10172     10173     10166     10169     10172     10174
     10166     10169     10172     10175     10167     10166     10169     10170
     10167     10166     10169     10171     10167     10166     10169     10172
     10168     10166     10169     10170     10168     10166     10169     10171
     10168     10166     10169     10172     10169     10172     10175     10176
     10169     10172     10175     10177     10169     10172     10175     10178
     10170     10169     10172     10173     10170     10169     10172     10174
     10170     10169     10172     10175     10171     10169     10172     10173
     10171     10169     10172     10174     10171     10169     10172     10175
     10172     10175     10178     10179     10172     10175     10178     10180
     10172     10175     10178     10181     10173     10172     10175     10176
     10173     10172     10175     10177     10173     10172     10175     10178
     10174     10172     10175     10176     10174     10172     10175     10177
     10174     10172     10175     10178     10175     10178     10181     10182
     10175     10178     10181     10183     10176     10175     10178     10179
     10176     10175     10178     10180     10176     10175     10178     10181
     10177     10175     10178     10179     10177     10175     10178     10180
     10177     10175     10178     10181     10178     10181     10183     10184
     10178     10181     10183     10185     10179     10178     10181     10182
     10179     10178     10181     10183     10180     10178     10181     10182
     10180     10178     10181     10183     10181     10183     10185     10186
     10181     10183     10185     10187     10181     10183     10185     10188
     10182     10181     10183     10184     10182     10181     10183     10185
     10183     10185     10188     10189     10183     10185     10188     10190
     10183     10185     10188     10191     10184     10183     10185     10186
     10184     10183     10185     10187     10184     10183     10185     10188
     10185     10188     10191     10192     10185     10188     10191     10193
     10185     10188     10191     10194     10186     10185     10188     10189
     10186     10185     10188     10190     10186     10185     10188     10191
     10187     10185     10188     10189     10187     10185     10188     10190
     10187     10185     10188     10191     10188     10191     10194     10195
     10188     10191     10194     10196     10188     10191     10194     10197
     10189     10188     10191     10192     10189     10188     10191     10193
     10189     10188     10191     10194     10190     10188     10191     10192
     10190     10188     10191     10193     10190     10188     10191     10194
     10191     10194     10197     10198     10191     10194     10197     10199
     10191     10194     10197     10200     10192     10191     10194     10195
     10192     10191     10194     10196     10192     10191     10194     10197
     10193     10191     10194     10195     10193     10191     10194     10196
     10193     10191     10194     10197     10194     10197     10200     10201
     10194     10197     10200     10202     10194     10197     10200     10203
     10195     10194     10197     10198     10195     10194     10197     10199
     10195     10194     10197     10200     10196     10194     10197     10198
     10196     10194     10197     10199     10196     10194     10197     10200
     10197     10200     10203     10204     10197     10200     10203     10205
     10197     10200     10203     10206     10198     10197     10200     10201
     10198     10197     10200     10202     10198     10197     10200     10203
     10199     10197     10200     10201     10199     10197     10200     10202
     10199     10197     10200     10203     10200     10203     10206     10207
     10200     10203     10206     10208     10200     10203     10206     10209
     10201     10200     10203     10204     10201     10200     10203     10205
     10201     10200     10203     10206     10202     10200     10203     10204
     10202     10200     10203     10205     10202     10200     10203     10206
     10204     10203     10206     10207     10204     10203     10206     10208
     10204     10203     10206     10209     10205     10203     10206     10207
     10205     10203     10206     10208     10205     10203     10206     10209
     10210     10213     10216     10217     10210     10213     10216     10218
     10210     10213     10216     10219     10211     10210     10213     10214
     10211     10210     10213     10215     10211     10210     10213     10216
     10212     10210     10213     10214     10212     10210     10213     10215
     10212     10210     10213     10216     10213     10216     10219     10220
     10213     10216     10219     10221     10213     10216     10219     10222
     10214     10213     10216     10217     10214     10213     10216     10218
     10214     10213     10216     10219     10215     10213     10216     10217
     10215     10213     10216     10218     10215     10213     10216     10219
     10216     10219     10222     10223     10216     10219     10222     10224
     10216     10219     10222     10225     10217     10216     10219     10220
     10217     10216     10219     10221     10217     10216     10219     10222
     10218     10216     10219     10220     10218     10216     10219     10221
     10218     10216     10219     10222     10219     10222     10225     10226
     10219     10222     10225     10227     10219     10222     10225     10228
     10220     10219     10222     10223     10220     10219     10222     10224
     10220     10219     10222     10225     10221     10219     10222     10223
     10221     10219     10222     10224     10221     10219     10222     10225
     10222     10225     10228     10229     10222     10225     10228     10230
     10222     10225     10228     10231     10223     10222     10225     10226
     10223     10222     10225     10227     10223     10222     10225     10228
     10224     10222     10225     10226     10224     10222     10225     10227
     10224     10222     10225     10228     10225     10228     10231     10232
     10225     10228     10231     10233     10225     10228     10231     10234
     10226     10225     10228     10229     10226     10225     10228     10230
     10226     10225     10228     10231     10227     10225     10228     10229
     10227     10225     10228     10230     10227     10225     10228     10231
     10228     10231     10234     10235     10228     10231     10234     10236
     10228     10231     10234     10237     10229     10228     10231     10232
     10229     10228     10231     10233     10229     10228     10231     10234
     10230     10228     10231     10232     10230     10228     10231     10233
     10230     10228     10231     10234     10231     10234     10237     10238
     10231     10234     10237     10239     10231     10234     10237     10240
     10232     10231     10234     10235     10232     10231     10234     10236
     10232     10231     10234     10237     10233     10231     10234     10235
     10233     10231     10234     10236     10233     10231     10234     10237
     10234     10237     10240     10241     10234     10237     10240     10242
     10234     10237     10240     10243     10235     10234     10237     10238
     10235     10234     10237     10239     10235     10234     10237     10240
     10236     10234     10237     10238     10236     10234     10237     10239
     10236     10234     10237     10240     10237     10240     10243     10244
     10237     10240     10243     10245     10237     10240     10243     10246
     10238     10237     10240     10241     10238     10237     10240     10242
     10238     10237     10240     10243     10239     10237     10240     10241
     10239     10237     10240     10242     10239     10237     10240     10243
     10240     10243     10246     10247     10240     10243     10246     10248
     10240     10243     10246     10249     10241     10240     10243     10244
     10241     10240     10243     10245     10241     10240     10243     10246
     10242     10240     10243     10244     10242     10240     10243     10245
     10242     10240     10243     10246     10243     10246     10249     10250
     10243     10246     10249     10251     10243     10246     10249     10252
     10244     10243     10246     10247     10244     10243     10246     10248
     10244     10243     10246     10249     10245     10243     10246     10247
     10245     10243     10246     10248     10245     10243     10246     10249
     10247     10246     10249     10250     10247     10246     10249     10251
     10247     10246     10249     10252     10248     10246     10249     10250
     10248     10246     10249     10251     10248     10246     10249     10252
     10253     10254     10269     10270     10253     10254     10269     10271
     10253     10254     10269     10275     10254     10253     10257     10258
     10254     10253     10257     10259     10254     10253     10257     10260
     10254     10253     10261     10262     10254     10253     10261     10263
     10254     10253     10261     10264     10254     10253     10265     10266
     10254     10253     10265     10267     10254     10253     10265     10268
     10254     10269     10275     10272     10255     10254     10253     10257
     10255     10254     10253     10261     10255     10254     10253     10265
     10255     10254     10269     10270     10255     10254     10269     10271
     10255     10254     10269     10275     10256     10254     10253     10257
     10256     10254     10253     10261     10256     10254     10253     10265
     10256     10254     10269     10270     10256     10254     10269     10271
     10256     10254     10269     10275     10257     10253     10254     10269
     10257     10253     10261     10262     10257     10253     10261     10263
     10257     10253     10261     10264     10257     10253     10265     10266
     10257     10253     10265     10267     10257     10253     10265     10268
     10258     10257     10253     10261     10258     10257     10253     10265
     10259     10257     10253     10261     10259     10257     10253     10265
     10260     10257     10253     10261     10260     10257     10253     10265
     10261     10253     10254     10269     10261     10253     10265     10266
     10261     10253     10265     10267     10261     10253     10265     10268
     10262     10261     10253     10265     10263     10261     10253     10265
     10264     10261     10253     10265     10265     10253     10254     10269
     10269     10275     10272     10273     10269     10275     10272     10274
     10269     10275     10272     10276     10270     10269     10275     10272
     10271     10269     10275     10272     10272     10276     10277     10278
     10272     10276     10277     10279     10272     10276     10277     10280
     10273     10272     10276     10277     10274     10272     10276     10277
     10275     10272     10276     10277     10276     10277     10280     10281
     10276     10277     10280     10282     10276     10277     10280     10288
     10277     10280     10282     10283     10277     10280     10288     10289
     10277     10280     10288     10290     10277     10280     10288     10291
     10278     10277     10280     10281     10278     10277     10280     10282
     10278     10277     10280     10288     10279     10277     10280     10281
     10279     10277     10280     10282     10279     10277     10280     10288
     10280     10282     10283     10284     10280     10282     10283     10285
     10280     10288     10291     10292     10281     10280     10282     10283
     10281     10280     10288     10289     10281     10280     10288     10290
     10281     10280     10288     10291     10282     10280     10288     10289
     10282     10280     10288     10290     10282     10280     10288     10291
     10282     10283     10285     10286     10282     10283     10285     10287
     10282     10283     10285     10297     10283     10282     10280     10288
     10283     10285     10297     10298     10283     10285     10297     10299
     10283     10285     10297     10300     10284     10283     10285     10286
     10284     10283     10285     10287     10284     10283     10285     10297
     10285     10297     10300     10301     10285     10297     10300     10302
     10285     10297     10300     10303     10286     10285     10297     10298
     10286     10285     10297     10299     10286     10285     10297     10300
     10287     10285     10297     10298     10287     10285     10297     10299
     10287     10285     10297     10300     10288     10291     10292     10293
     10288     10291     10292     10294     10289     10288     10291     10292
     10290     10288     10291     10292     10291     10292     10294     10295
     10291     10292     10294     10296     10291     10292     10294     10344
     10292     10294     10344     10345     10292     10294     10344     10346
     10292     10294     10344     10347     10293     10292     10294     10295
     10293     10292     10294     10296     10293     10292     10294     10344
     10294     10344     10347     10348     10294     10344     10347     10349
     10294     10344     10347     10350     10295     10294     10344     10345
     10295     10294     10344     10346     10295     10294     10344     10347
     10296     10294     10344     10345     10296     10294     10344     10346
     10296     10294     10344     10347     10297     10300     10303     10304
     10297     10300     10303     10305     10297     10300     10303     10306
     10298     10297     10300     10301     10298     10297     10300     10302
     10298     10297     10300     10303     10299     10297     10300     10301
     10299     10297     10300     10302     10299     10297     10300     10303
     10300     10303     10306     10307     10300     10303     10306     10308
     10300     10303     10306     10309     10301     10300     10303     10304
     10301     10300     10303     10305     10301     10300     10303     10306
     10302     10300     10303     10304     10302     10300     10303     10305
     10302     10300     10303     10306     10303     10306     10309     10310
     10303     10306     10309     10311     10303     10306     10309     10312
     10304     10303     10306     10307     10304     10303     10306     10308
     10304     10303     10306     10309     10305     10303     10306     10307
     10305     10303     10306     10308     10305     10303     10306     10309
     10306     10309     10312     10313     10306     10309     10312     10314
     10306     10309     10312     10315     10307     10306     10309     10310
     10307     10306     10309     10311     10307     10306     10309     10312
     10308     10306     10309     10310     10308     10306     10309     10311
     10308     10306     10309     10312     10309     10312     10315     10316
     10309     10312     10315     10317     10310     10309     10312     10313
     10310     10309     10312     10314     10310     10309     10312     10315
     10311     10309     10312     10313     10311     10309     10312     10314
     10311     10309     10312     10315     10312     10315     10317     10318
     10312     10315     10317     10319     10313     10312     10315     10316
     10313     10312     10315     10317     10314     10312     10315     10316
     10314     10312     10315     10317     10315     10317     10319     10320
     10315     10317     10319     10321     10315     10317     10319     10322
     10316     10315     10317     10318     10316     10315     10317     10319
     10317     10319     10322     10323     10317     10319     10322     10324
     10317     10319     10322     10325     10318     10317     10319     10320
     10318     10317     10319     10321     10318     10317     10319     10322
     10319     10322     10325     10326     10319     10322     10325     10327
     10319     10322     10325     10328     10320     10319     10322     10323
     10320     10319     10322     10324     10320     10319     10322     10325
     10321     10319     10322     10323     10321     10319     10322     10324
     10321     10319     10322     10325     10322     10325     10328     10329
     10322     10325     10328     10330     10322     10325     10328     10331
     10323     10322     10325     10326     10323     10322     10325     10327
     10323     10322     10325     10328     10324     10322     10325     10326
     10324     10322     10325     10327     10324     10322     10325     10328
     10325     10328     10331     10332     10325     10328     10331     10333
     10325     10328     10331     10334     10326     10325     10328     10329
     10326     10325     10328     10330     10326     10325     10328     10331
     10327     10325     10328     10329     10327     10325     10328     10330
     10327     10325     10328     10331     10328     10331     10334     10335
     10328     10331     10334     10336     10328     10331     10334     10337
     10329     10328     10331     10332     10329     10328     10331     10333
     10329     10328     10331     10334     10330     10328     10331     10332
     10330     10328     10331     10333     10330     10328     10331     10334
     10331     10334     10337     10338     10331     10334     10337     10339
     10331     10334     10337     10340     10332     10331     10334     10335
     10332     10331     10334     10336     10332     10331     10334     10337
     10333     10331     10334     10335     10333     10331     10334     10336
     10333     10331     10334     10337     10334     10337     10340     10341
     10334     10337     10340     10342     10334     10337     10340     10343
     10335     10334     10337     10338     10335     10334     10337     10339
     10335     10334     10337     10340     10336     10334     10337     10338
     10336     10334     10337     10339     10336     10334     10337     10340
     10338     10337     10340     10341     10338     10337     10340     10342
     10338     10337     10340     10343     10339     10337     10340     10341
     10339     10337     10340     10342     10339     10337     10340     10343
     10344     10347     10350     10351     10344     10347     10350     10352
     10344     10347     10350     10353     10345     10344     10347     10348
     10345     10344     10347     10349     10345     10344     10347     10350
     10346     10344     10347     10348     10346     10344     10347     10349
     10346     10344     10347     10350     10347     10350     10353     10354
     10347     10350     10353     10355     10347     10350     10353     10356
     10348     10347     10350     10351     10348     10347     10350     10352
     10348     10347     10350     10353     10349     10347     10350     10351
     10349     10347     10350     10352     10349     10347     10350     10353
     10350     10353     10356     10357     10350     10353     10356     10358
     10350     10353     10356     10359     10351     10350     10353     10354
     10351     10350     10353     10355     10351     10350     10353     10356
     10352     10350     10353     10354     10352     10350     10353     10355
     10352     10350     10353     10356     10353     10356     10359     10360
     10353     10356     10359     10361     10353     10356     10359     10362
     10354     10353     10356     10357     10354     10353     10356     10358
     10354     10353     10356     10359     10355     10353     10356     10357
     10355     10353     10356     10358     10355     10353     10356     10359
     10356     10359     10362     10363     10356     10359     10362     10364
     10356     10359     10362     10365     10357     10356     10359     10360
     10357     10356     10359     10361     10357     10356     10359     10362
     10358     10356     10359     10360     10358     10356     10359     10361
     10358     10356     10359     10362     10359     10362     10365     10366
     10359     10362     10365     10367     10359     10362     10365     10368
     10360     10359     10362     10363     10360     10359     10362     10364
     10360     10359     10362     10365     10361     10359     10362     10363
     10361     10359     10362     10364     10361     10359     10362     10365
     10362     10365     10368     10369     10362     10365     10368     10370
     10362     10365     10368     10371     10363     10362     10365     10366
     10363     10362     10365     10367     10363     10362     10365     10368
     10364     10362     10365     10366     10364     10362     10365     10367
     10364     10362     10365     10368     10365     10368     10371     10372
     10365     10368     10371     10373     10365     10368     10371     10374
     10366     10365     10368     10369     10366     10365     10368     10370
     10366     10365     10368     10371     10367     10365     10368     10369
     10367     10365     10368     10370     10367     10365     10368     10371
     10368     10371     10374     10375     10368     10371     10374     10376
     10368     10371     10374     10377     10369     10368     10371     10372
     10369     10368     10371     10373     10369     10368     10371     10374
     10370     10368     10371     10372     10370     10368     10371     10373
     10370     10368     10371     10374     10371     10374     10377     10378
     10371     10374     10377     10379     10371     10374     10377     10380
     10372     10371     10374     10375     10372     10371     10374     10376
     10372     10371     10374     10377     10373     10371     10374     10375
     10373     10371     10374     10376     10373     10371     10374     10377
     10374     10377     10380     10381     10374     10377     10380     10382
     10374     10377     10380     10383     10375     10374     10377     10378
     10375     10374     10377     10379     10375     10374     10377     10380
     10376     10374     10377     10378     10376     10374     10377     10379
     10376     10374     10377     10380     10377     10380     10383     10384
     10377     10380     10383     10385     10377     10380     10383     10386
     10378     10377     10380     10381     10378     10377     10380     10382
     10378     10377     10380     10383     10379     10377     10380     10381
     10379     10377     10380     10382     10379     10377     10380     10383
     10381     10380     10383     10384     10381     10380     10383     10385
     10381     10380     10383     10386     10382     10380     10383     10384
     10382     10380     10383     10385     10382     10380     10383     10386
     10387     10388     10403     10404     10387     10388     10403     10405
     10387     10388     10403     10409     10388     10387     10391     10392
     10388     10387     10391     10393     10388     10387     10391     10394
     10388     10387     10395     10396     10388     10387     10395     10397
     10388     10387     10395     10398     10388     10387     10399     10400
     10388     10387     10399     10401     10388     10387     10399     10402
     10388     10403     10409     10406     10389     10388     10387     10391
     10389     10388     10387     10395     10389     10388     10387     10399
     10389     10388     10403     10404     10389     10388     10403     10405
     10389     10388     10403     10409     10390     10388     10387     10391
     10390     10388     10387     10395     10390     10388     10387     10399
     10390     10388     10403     10404     10390     10388     10403     10405
     10390     10388     10403     10409     10391     10387     10388     10403
     10391     10387     10395     10396     10391     10387     10395     10397
     10391     10387     10395     10398     10391     10387     10399     10400
     10391     10387     10399     10401     10391     10387     10399     10402
     10392     10391     10387     10395     10392     10391     10387     10399
     10393     10391     10387     10395     10393     10391     10387     10399
     10394     10391     10387     10395     10394     10391     10387     10399
     10395     10387     10388     10403     10395     10387     10399     10400
     10395     10387     10399     10401     10395     10387     10399     10402
     10396     10395     10387     10399     10397     10395     10387     10399
     10398     10395     10387     10399     10399     10387     10388     10403
     10403     10409     10406     10407     10403     10409     10406     10408
     10403     10409     10406     10410     10404     10403     10409     10406
     10405     10403     10409     10406     10406     10410     10411     10412
     10406     10410     10411     10413     10406     10410     10411     10414
     10407     10406     10410     10411     10408     10406     10410     10411
     10409     10406     10410     10411     10410     10411     10414     10415
     10410     10411     10414     10416     10410     10411     10414     10422
     10411     10414     10416     10417     10411     10414     10422     10423
     10411     10414     10422     10424     10411     10414     10422     10425
     10412     10411     10414     10415     10412     10411     10414     10416
     10412     10411     10414     10422     10413     10411     10414     10415
     10413     10411     10414     10416     10413     10411     10414     10422
     10414     10416     10417     10418     10414     10416     10417     10419
     10414     10422     10425     10426     10415     10414     10416     10417
     10415     10414     10422     10423     10415     10414     10422     10424
     10415     10414     10422     10425     10416     10414     10422     10423
     10416     10414     10422     10424     10416     10414     10422     10425
     10416     10417     10419     10420     10416     10417     10419     10421
     10416     10417     10419     10431     10417     10416     10414     10422
     10417     10419     10431     10432     10417     10419     10431     10433
     10417     10419     10431     10434     10418     10417     10419     10420
     10418     10417     10419     10421     10418     10417     10419     10431
     10419     10431     10434     10435     10419     10431     10434     10436
     10419     10431     10434     10437     10420     10419     10431     10432
     10420     10419     10431     10433     10420     10419     10431     10434
     10421     10419     10431     10432     10421     10419     10431     10433
     10421     10419     10431     10434     10422     10425     10426     10427
     10422     10425     10426     10428     10423     10422     10425     10426
     10424     10422     10425     10426     10425     10426     10428     10429
     10425     10426     10428     10430     10425     10426     10428     10478
     10426     10428     10478     10479     10426     10428     10478     10480
     10426     10428     10478     10481     10427     10426     10428     10429
     10427     10426     10428     10430     10427     10426     10428     10478
     10428     10478     10481     10482     10428     10478     10481     10483
     10428     10478     10481     10484     10429     10428     10478     10479
     10429     10428     10478     10480     10429     10428     10478     10481
     10430     10428     10478     10479     10430     10428     10478     10480
     10430     10428     10478     10481     10431     10434     10437     10438
     10431     10434     10437     10439     10431     10434     10437     10440
     10432     10431     10434     10435     10432     10431     10434     10436
     10432     10431     10434     10437     10433     10431     10434     10435
     10433     10431     10434     10436     10433     10431     10434     10437
     10434     10437     10440     10441     10434     10437     10440     10442
     10434     10437     10440     10443     10435     10434     10437     10438
     10435     10434     10437     10439     10435     10434     10437     10440
     10436     10434     10437     10438     10436     10434     10437     10439
     10436     10434     10437     10440     10437     10440     10443     10444
     10437     10440     10443     10445     10437     10440     10443     10446
     10438     10437     10440     10441     10438     10437     10440     10442
     10438     10437     10440     10443     10439     10437     10440     10441
     10439     10437     10440     10442     10439     10437     10440     10443
     10440     10443     10446     10447     10440     10443     10446     10448
     10440     10443     10446     10449     10441     10440     10443     10444
     10441     10440     10443     10445     10441     10440     10443     10446
     10442     10440     10443     10444     10442     10440     10443     10445
     10442     10440     10443     10446     10443     10446     10449     10450
     10443     10446     10449     10451     10444     10443     10446     10447
     10444     10443     10446     10448     10444     10443     10446     10449
     10445     10443     10446     10447     10445     10443     10446     10448
     10445     10443     10446     10449     10446     10449     10451     10452
     10446     10449     10451     10453     10447     10446     10449     10450
     10447     10446     10449     10451     10448     10446     10449     10450
     10448     10446     10449     10451     10449     10451     10453     10454
     10449     10451     10453     10455     10449     10451     10453     10456
     10450     10449     10451     10452     10450     10449     10451     10453
     10451     10453     10456     10457     10451     10453     10456     10458
     10451     10453     10456     10459     10452     10451     10453     10454
     10452     10451     10453     10455     10452     10451     10453     10456
     10453     10456     10459     10460     10453     10456     10459     10461
     10453     10456     10459     10462     10454     10453     10456     10457
     10454     10453     10456     10458     10454     10453     10456     10459
     10455     10453     10456     10457     10455     10453     10456     10458
     10455     10453     10456     10459     10456     10459     10462     10463
     10456     10459     10462     10464     10456     10459     10462     10465
     10457     10456     10459     10460     10457     10456     10459     10461
     10457     10456     10459     10462     10458     10456     10459     10460
     10458     10456     10459     10461     10458     10456     10459     10462
     10459     10462     10465     10466     10459     10462     10465     10467
     10459     10462     10465     10468     10460     10459     10462     10463
     10460     10459     10462     10464     10460     10459     10462     10465
     10461     10459     10462     10463     10461     10459     10462     10464
     10461     10459     10462     10465     10462     10465     10468     10469
     10462     10465     10468     10470     10462     10465     10468     10471
     10463     10462     10465     10466     10463     10462     10465     10467
     10463     10462     10465     10468     10464     10462     10465     10466
     10464     10462     10465     10467     10464     10462     10465     10468
     10465     10468     10471     10472     10465     10468     10471     10473
     10465     10468     10471     10474     10466     10465     10468     10469
     10466     10465     10468     10470     10466     10465     10468     10471
     10467     10465     10468     10469     10467     10465     10468     10470
     10467     10465     10468     10471     10468     10471     10474     10475
     10468     10471     10474     10476     10468     10471     10474     10477
     10469     10468     10471     10472     10469     10468     10471     10473
     10469     10468     10471     10474     10470     10468     10471     10472
     10470     10468     10471     10473     10470     10468     10471     10474
     10472     10471     10474     10475     10472     10471     10474     10476
     10472     10471     10474     10477     10473     10471     10474     10475
     10473     10471     10474     10476     10473     10471     10474     10477
     10478     10481     10484     10485     10478     10481     10484     10486
     10478     10481     10484     10487     10479     10478     10481     10482
     10479     10478     10481     10483     10479     10478     10481     10484
     10480     10478     10481     10482     10480     10478     10481     10483
     10480     10478     10481     10484     10481     10484     10487     10488
     10481     10484     10487     10489     10481     10484     10487     10490
     10482     10481     10484     10485     10482     10481     10484     10486
     10482     10481     10484     10487     10483     10481     10484     10485
     10483     10481     10484     10486     10483     10481     10484     10487
     10484     10487     10490     10491     10484     10487     10490     10492
     10484     10487     10490     10493     10485     10484     10487     10488
     10485     10484     10487     10489     10485     10484     10487     10490
     10486     10484     10487     10488     10486     10484     10487     10489
     10486     10484     10487     10490     10487     10490     10493     10494
     10487     10490     10493     10495     10487     10490     10493     10496
     10488     10487     10490     10491     10488     10487     10490     10492
     10488     10487     10490     10493     10489     10487     10490     10491
     10489     10487     10490     10492     10489     10487     10490     10493
     10490     10493     10496     10497     10490     10493     10496     10498
     10490     10493     10496     10499     10491     10490     10493     10494
     10491     10490     10493     10495     10491     10490     10493     10496
     10492     10490     10493     10494     10492     10490     10493     10495
     10492     10490     10493     10496     10493     10496     10499     10500
     10493     10496     10499     10501     10493     10496     10499     10502
     10494     10493     10496     10497     10494     10493     10496     10498
     10494     10493     10496     10499     10495     10493     10496     10497
     10495     10493     10496     10498     10495     10493     10496     10499
     10496     10499     10502     10503     10496     10499     10502     10504
     10496     10499     10502     10505     10497     10496     10499     10500
     10497     10496     10499     10501     10497     10496     10499     10502
     10498     10496     10499     10500     10498     10496     10499     10501
     10498     10496     10499     10502     10499     10502     10505     10506
     10499     10502     10505     10507     10499     10502     10505     10508
     10500     10499     10502     10503     10500     10499     10502     10504
     10500     10499     10502     10505     10501     10499     10502     10503
     10501     10499     10502     10504     10501     10499     10502     10505
     10502     10505     10508     10509     10502     10505     10508     10510
     10502     10505     10508     10511     10503     10502     10505     10506
     10503     10502     10505     10507     10503     10502     10505     10508
     10504     10502     10505     10506     10504     10502     10505     10507
     10504     10502     10505     10508     10505     10508     10511     10512
     10505     10508     10511     10513     10505     10508     10511     10514
     10506     10505     10508     10509     10506     10505     10508     10510
     10506     10505     10508     10511     10507     10505     10508     10509
     10507     10505     10508     10510     10507     10505     10508     10511
     10508     10511     10514     10515     10508     10511     10514     10516
     10508     10511     10514     10517     10509     10508     10511     10512
     10509     10508     10511     10513     10509     10508     10511     10514
     10510     10508     10511     10512     10510     10508     10511     10513
     10510     10508     10511     10514     10511     10514     10517     10518
     10511     10514     10517     10519     10511     10514     10517     10520
     10512     10511     10514     10515     10512     10511     10514     10516
     10512     10511     10514     10517     10513     10511     10514     10515
     10513     10511     10514     10516     10513     10511     10514     10517
     10515     10514     10517     10518     10515     10514     10517     10519
     10515     10514     10517     10520     10516     10514     10517     10518
     10516     10514     10517     10519     10516     10514     10517     10520
     10521     10522     10537     10538     10521     10522     10537     10539
     10521     10522     10537     10543     10522     10521     10525     10526
     10522     10521     10525     10527     10522     10521     10525     10528
     10522     10521     10529     10530     10522     10521     10529     10531
     10522     10521     10529     10532     10522     10521     10533     10534
     10522     10521     10533     10535     10522     10521     10533     10536
     10522     10537     10543     10540     10523     10522     10521     10525
     10523     10522     10521     10529     10523     10522     10521     10533
     10523     10522     10537     10538     10523     10522     10537     10539
     10523     10522     10537     10543     10524     10522     10521     10525
     10524     10522     10521     10529     10524     10522     10521     10533
     10524     10522     10537     10538     10524     10522     10537     10539
     10524     10522     10537     10543     10525     10521     10522     10537
     10525     10521     10529     10530     10525     10521     10529     10531
     10525     10521     10529     10532     10525     10521     10533     10534
     10525     10521     10533     10535     10525     10521     10533     10536
     10526     10525     10521     10529     10526     10525     10521     10533
     10527     10525     10521     10529     10527     10525     10521     10533
     10528     10525     10521     10529     10528     10525     10521     10533
     10529     10521     10522     10537     10529     10521     10533     10534
     10529     10521     10533     10535     10529     10521     10533     10536
     10530     10529     10521     10533     10531     10529     10521     10533
     10532     10529     10521     10533     10533     10521     10522     10537
     10537     10543     10540     10541     10537     10543     10540     10542
     10537     10543     10540     10544     10538     10537     10543     10540
     10539     10537     10543     10540     10540     10544     10545     10546
     10540     10544     10545     10547     10540     10544     10545     10548
     10541     10540     10544     10545     10542     10540     10544     10545
     10543     10540     10544     10545     10544     10545     10548     10549
     10544     10545     10548     10550     10544     10545     10548     10556
     10545     10548     10550     10551     10545     10548     10556     10557
     10545     10548     10556     10558     10545     10548     10556     10559
     10546     10545     10548     10549     10546     10545     10548     10550
     10546     10545     10548     10556     10547     10545     10548     10549
     10547     10545     10548     10550     10547     10545     10548     10556
     10548     10550     10551     10552     10548     10550     10551     10553
     10548     10556     10559     10560     10549     10548     10550     10551
     10549     10548     10556     10557     10549     10548     10556     10558
     10549     10548     10556     10559     10550     10548     10556     10557
     10550     10548     10556     10558     10550     10548     10556     10559
     10550     10551     10553     10554     10550     10551     10553     10555
     10550     10551     10553     10565     10551     10550     10548     10556
     10551     10553     10565     10566     10551     10553     10565     10567
     10551     10553     10565     10568     10552     10551     10553     10554
     10552     10551     10553     10555     10552     10551     10553     10565
     10553     10565     10568     10569     10553     10565     10568     10570
     10553     10565     10568     10571     10554     10553     10565     10566
     10554     10553     10565     10567     10554     10553     10565     10568
     10555     10553     10565     10566     10555     10553     10565     10567
     10555     10553     10565     10568     10556     10559     10560     10561
     10556     10559     10560     10562     10557     10556     10559     10560
     10558     10556     10559     10560     10559     10560     10562     10563
     10559     10560     10562     10564     10559     10560     10562     10612
     10560     10562     10612     10613     10560     10562     10612     10614
     10560     10562     10612     10615     10561     10560     10562     10563
     10561     10560     10562     10564     10561     10560     10562     10612
     10562     10612     10615     10616     10562     10612     10615     10617
     10562     10612     10615     10618     10563     10562     10612     10613
     10563     10562     10612     10614     10563     10562     10612     10615
     10564     10562     10612     10613     10564     10562     10612     10614
     10564     10562     10612     10615     10565     10568     10571     10572
     10565     10568     10571     10573     10565     10568     10571     10574
     10566     10565     10568     10569     10566     10565     10568     10570
     10566     10565     10568     10571     10567     10565     10568     10569
     10567     10565     10568     10570     10567     10565     10568     10571
     10568     10571     10574     10575     10568     10571     10574     10576
     10568     10571     10574     10577     10569     10568     10571     10572
     10569     10568     10571     10573     10569     10568     10571     10574
     10570     10568     10571     10572     10570     10568     10571     10573
     10570     10568     10571     10574     10571     10574     10577     10578
     10571     10574     10577     10579     10571     10574     10577     10580
     10572     10571     10574     10575     10572     10571     10574     10576
     10572     10571     10574     10577     10573     10571     10574     10575
     10573     10571     10574     10576     10573     10571     10574     10577
     10574     10577     10580     10581     10574     10577     10580     10582
     10574     10577     10580     10583     10575     10574     10577     10578
     10575     10574     10577     10579     10575     10574     10577     10580
     10576     10574     10577     10578     10576     10574     10577     10579
     10576     10574     10577     10580     10577     10580     10583     10584
     10577     10580     10583     10585     10578     10577     10580     10581
     10578     10577     10580     10582     10578     10577     10580     10583
     10579     10577     10580     10581     10579     10577     10580     10582
     10579     10577     10580     10583     10580     10583     10585     10586
     10580     10583     10585     10587     10581     10580     10583     10584
     10581     10580     10583     10585     10582     10580     10583     10584
     10582     10580     10583     10585     10583     10585     10587     10588
     10583     10585     10587     10589     10583     10585     10587     10590
     10584     10583     10585     10586     10584     10583     10585     10587
     10585     10587     10590     10591     10585     10587     10590     10592
     10585     10587     10590     10593     10586     10585     10587     10588
     10586     10585     10587     10589     10586     10585     10587     10590
     10587     10590     10593     10594     10587     10590     10593     10595
     10587     10590     10593     10596     10588     10587     10590     10591
     10588     10587     10590     10592     10588     10587     10590     10593
     10589     10587     10590     10591     10589     10587     10590     10592
     10589     10587     10590     10593     10590     10593     10596     10597
     10590     10593     10596     10598     10590     10593     10596     10599
     10591     10590     10593     10594     10591     10590     10593     10595
     10591     10590     10593     10596     10592     10590     10593     10594
     10592     10590     10593     10595     10592     10590     10593     10596
     10593     10596     10599     10600     10593     10596     10599     10601
     10593     10596     10599     10602     10594     10593     10596     10597
     10594     10593     10596     10598     10594     10593     10596     10599
     10595     10593     10596     10597     10595     10593     10596     10598
     10595     10593     10596     10599     10596     10599     10602     10603
     10596     10599     10602     10604     10596     10599     10602     10605
     10597     10596     10599     10600     10597     10596     10599     10601
     10597     10596     10599     10602     10598     10596     10599     10600
     10598     10596     10599     10601     10598     10596     10599     10602
     10599     10602     10605     10606     10599     10602     10605     10607
     10599     10602     10605     10608     10600     10599     10602     10603
     10600     10599     10602     10604     10600     10599     10602     10605
     10601     10599     10602     10603     10601     10599     10602     10604
     10601     10599     10602     10605     10602     10605     10608     10609
     10602     10605     10608     10610     10602     10605     10608     10611
     10603     10602     10605     10606     10603     10602     10605     10607
     10603     10602     10605     10608     10604     10602     10605     10606
     10604     10602     10605     10607     10604     10602     10605     10608
     10606     10605     10608     10609     10606     10605     10608     10610
     10606     10605     10608     10611     10607     10605     10608     10609
     10607     10605     10608     10610     10607     10605     10608     10611
     10612     10615     10618     10619     10612     10615     10618     10620
     10612     10615     10618     10621     10613     10612     10615     10616
     10613     10612     10615     10617     10613     10612     10615     10618
     10614     10612     10615     10616     10614     10612     10615     10617
     10614     10612     10615     10618     10615     10618     10621     10622
     10615     10618     10621     10623     10615     10618     10621     10624
     10616     10615     10618     10619     10616     10615     10618     10620
     10616     10615     10618     10621     10617     10615     10618     10619
     10617     10615     10618     10620     10617     10615     10618     10621
     10618     10621     10624     10625     10618     10621     10624     10626
     10618     10621     10624     10627     10619     10618     10621     10622
     10619     10618     10621     10623     10619     10618     10621     10624
     10620     10618     10621     10622     10620     10618     10621     10623
     10620     10618     10621     10624     10621     10624     10627     10628
     10621     10624     10627     10629     10621     10624     10627     10630
     10622     10621     10624     10625     10622     10621     10624     10626
     10622     10621     10624     10627     10623     10621     10624     10625
     10623     10621     10624     10626     10623     10621     10624     10627
     10624     10627     10630     10631     10624     10627     10630     10632
     10624     10627     10630     10633     10625     10624     10627     10628
     10625     10624     10627     10629     10625     10624     10627     10630
     10626     10624     10627     10628     10626     10624     10627     10629
     10626     10624     10627     10630     10627     10630     10633     10634
     10627     10630     10633     10635     10627     10630     10633     10636
     10628     10627     10630     10631     10628     10627     10630     10632
     10628     10627     10630     10633     10629     10627     10630     10631
     10629     10627     10630     10632     10629     10627     10630     10633
     10630     10633     10636     10637     10630     10633     10636     10638
     10630     10633     10636     10639     10631     10630     10633     10634
     10631     10630     10633     10635     10631     10630     10633     10636
     10632     10630     10633     10634     10632     10630     10633     10635
     10632     10630     10633     10636     10633     10636     10639     10640
     10633     10636     10639     10641     10633     10636     10639     10642
     10634     10633     10636     10637     10634     10633     10636     10638
     10634     10633     10636     10639     10635     10633     10636     10637
     10635     10633     10636     10638     10635     10633     10636     10639
     10636     10639     10642     10643     10636     10639     10642     10644
     10636     10639     10642     10645     10637     10636     10639     10640
     10637     10636     10639     10641     10637     10636     10639     10642
     10638     10636     10639     10640     10638     10636     10639     10641
     10638     10636     10639     10642     10639     10642     10645     10646
     10639     10642     10645     10647     10639     10642     10645     10648
     10640     10639     10642     10643     10640     10639     10642     10644
     10640     10639     10642     10645     10641     10639     10642     10643
     10641     10639     10642     10644     10641     10639     10642     10645
     10642     10645     10648     10649     10642     10645     10648     10650
     10642     10645     10648     10651     10643     10642     10645     10646
     10643     10642     10645     10647     10643     10642     10645     10648
     10644     10642     10645     10646     10644     10642     10645     10647
     10644     10642     10645     10648     10645     10648     10651     10652
     10645     10648     10651     10653     10645     10648     10651     10654
     10646     10645     10648     10649     10646     10645     10648     10650
     10646     10645     10648     10651     10647     10645     10648     10649
     10647     10645     10648     10650     10647     10645     10648     10651
     10649     10648     10651     10652     10649     10648     10651     10653
     10649     10648     10651     10654     10650     10648     10651     10652
     10650     10648     10651     10653     10650     10648     10651     10654
     10655     10656     10671     10672     10655     10656     10671     10673
     10655     10656     10671     10677     10656     10655     10659     10660
     10656     10655     10659     10661     10656     10655     10659     10662
     10656     10655     10663     10664     10656     10655     10663     10665
     10656     10655     10663     10666     10656     10655     10667     10668
     10656     10655     10667     10669     10656     10655     10667     10670
     10656     10671     10677     10674     10657     10656     10655     10659
     10657     10656     10655     10663     10657     10656     10655     10667
     10657     10656     10671     10672     10657     10656     10671     10673
     10657     10656     10671     10677     10658     10656     10655     10659
     10658     10656     10655     10663     10658     10656     10655     10667
     10658     10656     10671     10672     10658     10656     10671     10673
     10658     10656     10671     10677     10659     10655     10656     10671
     10659     10655     10663     10664     10659     10655     10663     10665
     10659     10655     10663     10666     10659     10655     10667     10668
     10659     10655     10667     10669     10659     10655     10667     10670
     10660     10659     10655     10663     10660     10659     10655     10667
     10661     10659     10655     10663     10661     10659     10655     10667
     10662     10659     10655     10663     10662     10659     10655     10667
     10663     10655     10656     10671     10663     10655     10667     10668
     10663     10655     10667     10669     10663     10655     10667     10670
     10664     10663     10655     10667     10665     10663     10655     10667
     10666     10663     10655     10667     10667     10655     10656     10671
     10671     10677     10674     10675     10671     10677     10674     10676
     10671     10677     10674     10678     10672     10671     10677     10674
     10673     10671     10677     10674     10674     10678     10679     10680
     10674     10678     10679     10681     10674     10678     10679     10682
     10675     10674     10678     10679     10676     10674     10678     10679
     10677     10674     10678     10679     10678     10679     10682     10683
     10678     10679     10682     10684     10678     10679     10682     10690
     10679     10682     10684     10685     10679     10682     10690     10691
     10679     10682     10690     10692     10679     10682     10690     10693
     10680     10679     10682     10683     10680     10679     10682     10684
     10680     10679     10682     10690     10681     10679     10682     10683
     10681     10679     10682     10684     10681     10679     10682     10690
     10682     10684     10685     10686     10682     10684     10685     10687
     10682     10690     10693     10694     10683     10682     10684     10685
     10683     10682     10690     10691     10683     10682     10690     10692
     10683     10682     10690     10693     10684     10682     10690     10691
     10684     10682     10690     10692     10684     10682     10690     10693
     10684     10685     10687     10688     10684     10685     10687     10689
     10684     10685     10687     10699     10685     10684     10682     10690
     10685     10687     10699     10700     10685     10687     10699     10701
     10685     10687     10699     10702     10686     10685     10687     10688
     10686     10685     10687     10689     10686     10685     10687     10699
     10687     10699     10702     10703     10687     10699     10702     10704
     10687     10699     10702     10705     10688     10687     10699     10700
     10688     10687     10699     10701     10688     10687     10699     10702
     10689     10687     10699     10700     10689     10687     10699     10701
     10689     10687     10699     10702     10690     10693     10694     10695
     10690     10693     10694     10696     10691     10690     10693     10694
     10692     10690     10693     10694     10693     10694     10696     10697
     10693     10694     10696     10698     10693     10694     10696     10746
     10694     10696     10746     10747     10694     10696     10746     10748
     10694     10696     10746     10749     10695     10694     10696     10697
     10695     10694     10696     10698     10695     10694     10696     10746
     10696     10746     10749     10750     10696     10746     10749     10751
     10696     10746     10749     10752     10697     10696     10746     10747
     10697     10696     10746     10748     10697     10696     10746     10749
     10698     10696     10746     10747     10698     10696     10746     10748
     10698     10696     10746     10749     10699     10702     10705     10706
     10699     10702     10705     10707     10699     10702     10705     10708
     10700     10699     10702     10703     10700     10699     10702     10704
     10700     10699     10702     10705     10701     10699     10702     10703
     10701     10699     10702     10704     10701     10699     10702     10705
     10702     10705     10708     10709     10702     10705     10708     10710
     10702     10705     10708     10711     10703     10702     10705     10706
     10703     10702     10705     10707     10703     10702     10705     10708
     10704     10702     10705     10706     10704     10702     10705     10707
     10704     10702     10705     10708     10705     10708     10711     10712
     10705     10708     10711     10713     10705     10708     10711     10714
     10706     10705     10708     10709     10706     10705     10708     10710
     10706     10705     10708     10711     10707     10705     10708     10709
     10707     10705     10708     10710     10707     10705     10708     10711
     10708     10711     10714     10715     10708     10711     10714     10716
     10708     10711     10714     10717     10709     10708     10711     10712
     10709     10708     10711     10713     10709     10708     10711     10714
     10710     10708     10711     10712     10710     10708     10711     10713
     10710     10708     10711     10714     10711     10714     10717     10718
     10711     10714     10717     10719     10712     10711     10714     10715
     10712     10711     10714     10716     10712     10711     10714     10717
     10713     10711     10714     10715     10713     10711     10714     10716
     10713     10711     10714     10717     10714     10717     10719     10720
     10714     10717     10719     10721     10715     10714     10717     10718
     10715     10714     10717     10719     10716     10714     10717     10718
     10716     10714     10717     10719     10717     10719     10721     10722
     10717     10719     10721     10723     10717     10719     10721     10724
     10718     10717     10719     10720     10718     10717     10719     10721
     10719     10721     10724     10725     10719     10721     10724     10726
     10719     10721     10724     10727     10720     10719     10721     10722
     10720     10719     10721     10723     10720     10719     10721     10724
     10721     10724     10727     10728     10721     10724     10727     10729
     10721     10724     10727     10730     10722     10721     10724     10725
     10722     10721     10724     10726     10722     10721     10724     10727
     10723     10721     10724     10725     10723     10721     10724     10726
     10723     10721     10724     10727     10724     10727     10730     10731
     10724     10727     10730     10732     10724     10727     10730     10733
     10725     10724     10727     10728     10725     10724     10727     10729
     10725     10724     10727     10730     10726     10724     10727     10728
     10726     10724     10727     10729     10726     10724     10727     10730
     10727     10730     10733     10734     10727     10730     10733     10735
     10727     10730     10733     10736     10728     10727     10730     10731
     10728     10727     10730     10732     10728     10727     10730     10733
     10729     10727     10730     10731     10729     10727     10730     10732
     10729     10727     10730     10733     10730     10733     10736     10737
     10730     10733     10736     10738     10730     10733     10736     10739
     10731     10730     10733     10734     10731     10730     10733     10735
     10731     10730     10733     10736     10732     10730     10733     10734
     10732     10730     10733     10735     10732     10730     10733     10736
     10733     10736     10739     10740     10733     10736     10739     10741
     10733     10736     10739     10742     10734     10733     10736     10737
     10734     10733     10736     10738     10734     10733     10736     10739
     10735     10733     10736     10737     10735     10733     10736     10738
     10735     10733     10736     10739     10736     10739     10742     10743
     10736     10739     10742     10744     10736     10739     10742     10745
     10737     10736     10739     10740     10737     10736     10739     10741
     10737     10736     10739     10742     10738     10736     10739     10740
     10738     10736     10739     10741     10738     10736     10739     10742
     10740     10739     10742     10743     10740     10739     10742     10744
     10740     10739     10742     10745     10741     10739     10742     10743
     10741     10739     10742     10744     10741     10739     10742     10745
     10746     10749     10752     10753     10746     10749     10752     10754
     10746     10749     10752     10755     10747     10746     10749     10750
     10747     10746     10749     10751     10747     10746     10749     10752
     10748     10746     10749     10750     10748     10746     10749     10751
     10748     10746     10749     10752     10749     10752     10755     10756
     10749     10752     10755     10757     10749     10752     10755     10758
     10750     10749     10752     10753     10750     10749     10752     10754
     10750     10749     10752     10755     10751     10749     10752     10753
     10751     10749     10752     10754     10751     10749     10752     10755
     10752     10755     10758     10759     10752     10755     10758     10760
     10752     10755     10758     10761     10753     10752     10755     10756
     10753     10752     10755     10757     10753     10752     10755     10758
     10754     10752     10755     10756     10754     10752     10755     10757
     10754     10752     10755     10758     10755     10758     10761     10762
     10755     10758     10761     10763     10755     10758     10761     10764
     10756     10755     10758     10759     10756     10755     10758     10760
     10756     10755     10758     10761     10757     10755     10758     10759
     10757     10755     10758     10760     10757     10755     10758     10761
     10758     10761     10764     10765     10758     10761     10764     10766
     10758     10761     10764     10767     10759     10758     10761     10762
     10759     10758     10761     10763     10759     10758     10761     10764
     10760     10758     10761     10762     10760     10758     10761     10763
     10760     10758     10761     10764     10761     10764     10767     10768
     10761     10764     10767     10769     10761     10764     10767     10770
     10762     10761     10764     10765     10762     10761     10764     10766
     10762     10761     10764     10767     10763     10761     10764     10765
     10763     10761     10764     10766     10763     10761     10764     10767
     10764     10767     10770     10771     10764     10767     10770     10772
     10764     10767     10770     10773     10765     10764     10767     10768
     10765     10764     10767     10769     10765     10764     10767     10770
     10766     10764     10767     10768     10766     10764     10767     10769
     10766     10764     10767     10770     10767     10770     10773     10774
     10767     10770     10773     10775     10767     10770     10773     10776
     10768     10767     10770     10771     10768     10767     10770     10772
     10768     10767     10770     10773     10769     10767     10770     10771
     10769     10767     10770     10772     10769     10767     10770     10773
     10770     10773     10776     10777     10770     10773     10776     10778
     10770     10773     10776     10779     10771     10770     10773     10774
     10771     10770     10773     10775     10771     10770     10773     10776
     10772     10770     10773     10774     10772     10770     10773     10775
     10772     10770     10773     10776     10773     10776     10779     10780
     10773     10776     10779     10781     10773     10776     10779     10782
     10774     10773     10776     10777     10774     10773     10776     10778
     10774     10773     10776     10779     10775     10773     10776     10777
     10775     10773     10776     10778     10775     10773     10776     10779
     10776     10779     10782     10783     10776     10779     10782     10784
     10776     10779     10782     10785     10777     10776     10779     10780
     10777     10776     10779     10781     10777     10776     10779     10782
     10778     10776     10779     10780     10778     10776     10779     10781
     10778     10776     10779     10782     10779     10782     10785     10786
     10779     10782     10785     10787     10779     10782     10785     10788
     10780     10779     10782     10783     10780     10779     10782     10784
     10780     10779     10782     10785     10781     10779     10782     10783
     10781     10779     10782     10784     10781     10779     10782     10785
     10783     10782     10785     10786     10783     10782     10785     10787
     10783     10782     10785     10788     10784     10782     10785     10786
     10784     10782     10785     10787     10784     10782     10785     10788
     10789     10790     10805     10806     10789     10790     10805     10807
     10789     10790     10805     10811     10790     10789     10793     10794
     10790     10789     10793     10795     10790     10789     10793     10796
     10790     10789     10797     10798     10790     10789     10797     10799
     10790     10789     10797     10800     10790     10789     10801     10802
     10790     10789     10801     10803     10790     10789     10801     10804
     10790     10805     10811     10808     10791     10790     10789     10793
     10791     10790     10789     10797     10791     10790     10789     10801
     10791     10790     10805     10806     10791     10790     10805     10807
     10791     10790     10805     10811     10792     10790     10789     10793
     10792     10790     10789     10797     10792     10790     10789     10801
     10792     10790     10805     10806     10792     10790     10805     10807
     10792     10790     10805     10811     10793     10789     10790     10805
     10793     10789     10797     10798     10793     10789     10797     10799
     10793     10789     10797     10800     10793     10789     10801     10802
     10793     10789     10801     10803     10793     10789     10801     10804
     10794     10793     10789     10797     10794     10793     10789     10801
     10795     10793     10789     10797     10795     10793     10789     10801
     10796     10793     10789     10797     10796     10793     10789     10801
     10797     10789     10790     10805     10797     10789     10801     10802
     10797     10789     10801     10803     10797     10789     10801     10804
     10798     10797     10789     10801     10799     10797     10789     10801
     10800     10797     10789     10801     10801     10789     10790     10805
     10805     10811     10808     10809     10805     10811     10808     10810
     10805     10811     10808     10812     10806     10805     10811     10808
     10807     10805     10811     10808     10808     10812     10813     10814
     10808     10812     10813     10815     10808     10812     10813     10816
     10809     10808     10812     10813     10810     10808     10812     10813
     10811     10808     10812     10813     10812     10813     10816     10817
     10812     10813     10816     10818     10812     10813     10816     10824
     10813     10816     10818     10819     10813     10816     10824     10825
     10813     10816     10824     10826     10813     10816     10824     10827
     10814     10813     10816     10817     10814     10813     10816     10818
     10814     10813     10816     10824     10815     10813     10816     10817
     10815     10813     10816     10818     10815     10813     10816     10824
     10816     10818     10819     10820     10816     10818     10819     10821
     10816     10824     10827     10828     10817     10816     10818     10819
     10817     10816     10824     10825     10817     10816     10824     10826
     10817     10816     10824     10827     10818     10816     10824     10825
     10818     10816     10824     10826     10818     10816     10824     10827
     10818     10819     10821     10822     10818     10819     10821     10823
     10818     10819     10821     10833     10819     10818     10816     10824
     10819     10821     10833     10834     10819     10821     10833     10835
     10819     10821     10833     10836     10820     10819     10821     10822
     10820     10819     10821     10823     10820     10819     10821     10833
     10821     10833     10836     10837     10821     10833     10836     10838
     10821     10833     10836     10839     10822     10821     10833     10834
     10822     10821     10833     10835     10822     10821     10833     10836
     10823     10821     10833     10834     10823     10821     10833     10835
     10823     10821     10833     10836     10824     10827     10828     10829
     10824     10827     10828     10830     10825     10824     10827     10828
     10826     10824     10827     10828     10827     10828     10830     10831
     10827     10828     10830     10832     10827     10828     10830     10880
     10828     10830     10880     10881     10828     10830     10880     10882
     10828     10830     10880     10883     10829     10828     10830     10831
     10829     10828     10830     10832     10829     10828     10830     10880
     10830     10880     10883     10884     10830     10880     10883     10885
     10830     10880     10883     10886     10831     10830     10880     10881
     10831     10830     10880     10882     10831     10830     10880     10883
     10832     10830     10880     10881     10832     10830     10880     10882
     10832     10830     10880     10883     10833     10836     10839     10840
     10833     10836     10839     10841     10833     10836     10839     10842
     10834     10833     10836     10837     10834     10833     10836     10838
     10834     10833     10836     10839     10835     10833     10836     10837
     10835     10833     10836     10838     10835     10833     10836     10839
     10836     10839     10842     10843     10836     10839     10842     10844
     10836     10839     10842     10845     10837     10836     10839     10840
     10837     10836     10839     10841     10837     10836     10839     10842
     10838     10836     10839     10840     10838     10836     10839     10841
     10838     10836     10839     10842     10839     10842     10845     10846
     10839     10842     10845     10847     10839     10842     10845     10848
     10840     10839     10842     10843     10840     10839     10842     10844
     10840     10839     10842     10845     10841     10839     10842     10843
     10841     10839     10842     10844     10841     10839     10842     10845
     10842     10845     10848     10849     10842     10845     10848     10850
     10842     10845     10848     10851     10843     10842     10845     10846
     10843     10842     10845     10847     10843     10842     10845     10848
     10844     10842     10845     10846     10844     10842     10845     10847
     10844     10842     10845     10848     10845     10848     10851     10852
     10845     10848     10851     10853     10846     10845     10848     10849
     10846     10845     10848     10850     10846     10845     10848     10851
     10847     10845     10848     10849     10847     10845     10848     10850
     10847     10845     10848     10851     10848     10851     10853     10854
     10848     10851     10853     10855     10849     10848     10851     10852
     10849     10848     10851     10853     10850     10848     10851     10852
     10850     10848     10851     10853     10851     10853     10855     10856
     10851     10853     10855     10857     10851     10853     10855     10858
     10852     10851     10853     10854     10852     10851     10853     10855
     10853     10855     10858     10859     10853     10855     10858     10860
     10853     10855     10858     10861     10854     10853     10855     10856
     10854     10853     10855     10857     10854     10853     10855     10858
     10855     10858     10861     10862     10855     10858     10861     10863
     10855     10858     10861     10864     10856     10855     10858     10859
     10856     10855     10858     10860     10856     10855     10858     10861
     10857     10855     10858     10859     10857     10855     10858     10860
     10857     10855     10858     10861     10858     10861     10864     10865
     10858     10861     10864     10866     10858     10861     10864     10867
     10859     10858     10861     10862     10859     10858     10861     10863
     10859     10858     10861     10864     10860     10858     10861     10862
     10860     10858     10861     10863     10860     10858     10861     10864
     10861     10864     10867     10868     10861     10864     10867     10869
     10861     10864     10867     10870     10862     10861     10864     10865
     10862     10861     10864     10866     10862     10861     10864     10867
     10863     10861     10864     10865     10863     10861     10864     10866
     10863     10861     10864     10867     10864     10867     10870     10871
     10864     10867     10870     10872     10864     10867     10870     10873
     10865     10864     10867     10868     10865     10864     10867     10869
     10865     10864     10867     10870     10866     10864     10867     10868
     10866     10864     10867     10869     10866     10864     10867     10870
     10867     10870     10873     10874     10867     10870     10873     10875
     10867     10870     10873     10876     10868     10867     10870     10871
     10868     10867     10870     10872     10868     10867     10870     10873
     10869     10867     10870     10871     10869     10867     10870     10872
     10869     10867     10870     10873     10870     10873     10876     10877
     10870     10873     10876     10878     10870     10873     10876     10879
     10871     10870     10873     10874     10871     10870     10873     10875
     10871     10870     10873     10876     10872     10870     10873     10874
     10872     10870     10873     10875     10872     10870     10873     10876
     10874     10873     10876     10877     10874     10873     10876     10878
     10874     10873     10876     10879     10875     10873     10876     10877
     10875     10873     10876     10878     10875     10873     10876     10879
     10880     10883     10886     10887     10880     10883     10886     10888
     10880     10883     10886     10889     10881     10880     10883     10884
     10881     10880     10883     10885     10881     10880     10883     10886
     10882     10880     10883     10884     10882     10880     10883     10885
     10882     10880     10883     10886     10883     10886     10889     10890
     10883     10886     10889     10891     10883     10886     10889     10892
     10884     10883     10886     10887     10884     10883     10886     10888
     10884     10883     10886     10889     10885     10883     10886     10887
     10885     10883     10886     10888     10885     10883     10886     10889
     10886     10889     10892     10893     10886     10889     10892     10894
     10886     10889     10892     10895     10887     10886     10889     10890
     10887     10886     10889     10891     10887     10886     10889     10892
     10888     10886     10889     10890     10888     10886     10889     10891
     10888     10886     10889     10892     10889     10892     10895     10896
     10889     10892     10895     10897     10889     10892     10895     10898
     10890     10889     10892     10893     10890     10889     10892     10894
     10890     10889     10892     10895     10891     10889     10892     10893
     10891     10889     10892     10894     10891     10889     10892     10895
     10892     10895     10898     10899     10892     10895     10898     10900
     10892     10895     10898     10901     10893     10892     10895     10896
     10893     10892     10895     10897     10893     10892     10895     10898
     10894     10892     10895     10896     10894     10892     10895     10897
     10894     10892     10895     10898     10895     10898     10901     10902
     10895     10898     10901     10903     10895     10898     10901     10904
     10896     10895     10898     10899     10896     10895     10898     10900
     10896     10895     10898     10901     10897     10895     10898     10899
     10897     10895     10898     10900     10897     10895     10898     10901
     10898     10901     10904     10905     10898     10901     10904     10906
     10898     10901     10904     10907     10899     10898     10901     10902
     10899     10898     10901     10903     10899     10898     10901     10904
     10900     10898     10901     10902     10900     10898     10901     10903
     10900     10898     10901     10904     10901     10904     10907     10908
     10901     10904     10907     10909     10901     10904     10907     10910
     10902     10901     10904     10905     10902     10901     10904     10906
     10902     10901     10904     10907     10903     10901     10904     10905
     10903     10901     10904     10906     10903     10901     10904     10907
     10904     10907     10910     10911     10904     10907     10910     10912
     10904     10907     10910     10913     10905     10904     10907     10908
     10905     10904     10907     10909     10905     10904     10907     10910
     10906     10904     10907     10908     10906     10904     10907     10909
     10906     10904     10907     10910     10907     10910     10913     10914
     10907     10910     10913     10915     10907     10910     10913     10916
     10908     10907     10910     10911     10908     10907     10910     10912
     10908     10907     10910     10913     10909     10907     10910     10911
     10909     10907     10910     10912     10909     10907     10910     10913
     10910     10913     10916     10917     10910     10913     10916     10918
     10910     10913     10916     10919     10911     10910     10913     10914
     10911     10910     10913     10915     10911     10910     10913     10916
     10912     10910     10913     10914     10912     10910     10913     10915
     10912     10910     10913     10916     10913     10916     10919     10920
     10913     10916     10919     10921     10913     10916     10919     10922
     10914     10913     10916     10917     10914     10913     10916     10918
     10914     10913     10916     10919     10915     10913     10916     10917
     10915     10913     10916     10918     10915     10913     10916     10919
     10917     10916     10919     10920     10917     10916     10919     10921
     10917     10916     10919     10922     10918     10916     10919     10920
     10918     10916     10919     10921     10918     10916     10919     10922
     10923     10924     10939     10940     10923     10924     10939     10941
     10923     10924     10939     10945     10924     10923     10927     10928
     10924     10923     10927     10929     10924     10923     10927     10930
     10924     10923     10931     10932     10924     10923     10931     10933
     10924     10923     10931     10934     10924     10923     10935     10936
     10924     10923     10935     10937     10924     10923     10935     10938
     10924     10939     10945     10942     10925     10924     10923     10927
     10925     10924     10923     10931     10925     10924     10923     10935
     10925     10924     10939     10940     10925     10924     10939     10941
     10925     10924     10939     10945     10926     10924     10923     10927
     10926     10924     10923     10931     10926     10924     10923     10935
     10926     10924     10939     10940     10926     10924     10939     10941
     10926     10924     10939     10945     10927     10923     10924     10939
     10927     10923     10931     10932     10927     10923     10931     10933
     10927     10923     10931     10934     10927     10923     10935     10936
     10927     10923     10935     10937     10927     10923     10935     10938
     10928     10927     10923     10931     10928     10927     10923     10935
     10929     10927     10923     10931     10929     10927     10923     10935
     10930     10927     10923     10931     10930     10927     10923     10935
     10931     10923     10924     10939     10931     10923     10935     10936
     10931     10923     10935     10937     10931     10923     10935     10938
     10932     10931     10923     10935     10933     10931     10923     10935
     10934     10931     10923     10935     10935     10923     10924     10939
     10939     10945     10942     10943     10939     10945     10942     10944
     10939     10945     10942     10946     10940     10939     10945     10942
     10941     10939     10945     10942     10942     10946     10947     10948
     10942     10946     10947     10949     10942     10946     10947     10950
     10943     10942     10946     10947     10944     10942     10946     10947
     10945     10942     10946     10947     10946     10947     10950     10951
     10946     10947     10950     10952     10946     10947     10950     10958
     10947     10950     10952     10953     10947     10950     10958     10959
     10947     10950     10958     10960     10947     10950     10958     10961
     10948     10947     10950     10951     10948     10947     10950     10952
     10948     10947     10950     10958     10949     10947     10950     10951
     10949     10947     10950     10952     10949     10947     10950     10958
     10950     10952     10953     10954     10950     10952     10953     10955
     10950     10958     10961     10962     10951     10950     10952     10953
     10951     10950     10958     10959     10951     10950     10958     10960
     10951     10950     10958     10961     10952     10950     10958     10959
     10952     10950     10958     10960     10952     10950     10958     10961
     10952     10953     10955     10956     10952     10953     10955     10957
     10952     10953     10955     10967     10953     10952     10950     10958
     10953     10955     10967     10968     10953     10955     10967     10969
     10953     10955     10967     10970     10954     10953     10955     10956
     10954     10953     10955     10957     10954     10953     10955     10967
     10955     10967     10970     10971     10955     10967     10970     10972
     10955     10967     10970     10973     10956     10955     10967     10968
     10956     10955     10967     10969     10956     10955     10967     10970
     10957     10955     10967     10968     10957     10955     10967     10969
     10957     10955     10967     10970     10958     10961     10962     10963
     10958     10961     10962     10964     10959     10958     10961     10962
     10960     10958     10961     10962     10961     10962     10964     10965
     10961     10962     10964     10966     10961     10962     10964     11014
     10962     10964     11014     11015     10962     10964     11014     11016
     10962     10964     11014     11017     10963     10962     10964     10965
     10963     10962     10964     10966     10963     10962     10964     11014
     10964     11014     11017     11018     10964     11014     11017     11019
     10964     11014     11017     11020     10965     10964     11014     11015
     10965     10964     11014     11016     10965     10964     11014     11017
     10966     10964     11014     11015     10966     10964     11014     11016
     10966     10964     11014     11017     10967     10970     10973     10974
     10967     10970     10973     10975     10967     10970     10973     10976
     10968     10967     10970     10971     10968     10967     10970     10972
     10968     10967     10970     10973     10969     10967     10970     10971
     10969     10967     10970     10972     10969     10967     10970     10973
     10970     10973     10976     10977     10970     10973     10976     10978
     10970     10973     10976     10979     10971     10970     10973     10974
     10971     10970     10973     10975     10971     10970     10973     10976
     10972     10970     10973     10974     10972     10970     10973     10975
     10972     10970     10973     10976     10973     10976     10979     10980
     10973     10976     10979     10981     10973     10976     10979     10982
     10974     10973     10976     10977     10974     10973     10976     10978
     10974     10973     10976     10979     10975     10973     10976     10977
     10975     10973     10976     10978     10975     10973     10976     10979
     10976     10979     10982     10983     10976     10979     10982     10984
     10976     10979     10982     10985     10977     10976     10979     10980
     10977     10976     10979     10981     10977     10976     10979     10982
     10978     10976     10979     10980     10978     10976     10979     10981
     10978     10976     10979     10982     10979     10982     10985     10986
     10979     10982     10985     10987     10980     10979     10982     10983
     10980     10979     10982     10984     10980     10979     10982     10985
     10981     10979     10982     10983     10981     10979     10982     10984
     10981     10979     10982     10985     10982     10985     10987     10988
     10982     10985     10987     10989     10983     10982     10985     10986
     10983     10982     10985     10987     10984     10982     10985     10986
     10984     10982     10985     10987     10985     10987     10989     10990
     10985     10987     10989     10991     10985     10987     10989     10992
     10986     10985     10987     10988     10986     10985     10987     10989
     10987     10989     10992     10993     10987     10989     10992     10994
     10987     10989     10992     10995     10988     10987     10989     10990
     10988     10987     10989     10991     10988     10987     10989     10992
     10989     10992     10995     10996     10989     10992     10995     10997
     10989     10992     10995     10998     10990     10989     10992     10993
     10990     10989     10992     10994     10990     10989     10992     10995
     10991     10989     10992     10993     10991     10989     10992     10994
     10991     10989     10992     10995     10992     10995     10998     10999
     10992     10995     10998     11000     10992     10995     10998     11001
     10993     10992     10995     10996     10993     10992     10995     10997
     10993     10992     10995     10998     10994     10992     10995     10996
     10994     10992     10995     10997     10994     10992     10995     10998
     10995     10998     11001     11002     10995     10998     11001     11003
     10995     10998     11001     11004     10996     10995     10998     10999
     10996     10995     10998     11000     10996     10995     10998     11001
     10997     10995     10998     10999     10997     10995     10998     11000
     10997     10995     10998     11001     10998     11001     11004     11005
     10998     11001     11004     11006     10998     11001     11004     11007
     10999     10998     11001     11002     10999     10998     11001     11003
     10999     10998     11001     11004     11000     10998     11001     11002
     11000     10998     11001     11003     11000     10998     11001     11004
     11001     11004     11007     11008     11001     11004     11007     11009
     11001     11004     11007     11010     11002     11001     11004     11005
     11002     11001     11004     11006     11002     11001     11004     11007
     11003     11001     11004     11005     11003     11001     11004     11006
     11003     11001     11004     11007     11004     11007     11010     11011
     11004     11007     11010     11012     11004     11007     11010     11013
     11005     11004     11007     11008     11005     11004     11007     11009
     11005     11004     11007     11010     11006     11004     11007     11008
     11006     11004     11007     11009     11006     11004     11007     11010
     11008     11007     11010     11011     11008     11007     11010     11012
     11008     11007     11010     11013     11009     11007     11010     11011
     11009     11007     11010     11012     11009     11007     11010     11013
     11014     11017     11020     11021     11014     11017     11020     11022
     11014     11017     11020     11023     11015     11014     11017     11018
     11015     11014     11017     11019     11015     11014     11017     11020
     11016     11014     11017     11018     11016     11014     11017     11019
     11016     11014     11017     11020     11017     11020     11023     11024
     11017     11020     11023     11025     11017     11020     11023     11026
     11018     11017     11020     11021     11018     11017     11020     11022
     11018     11017     11020     11023     11019     11017     11020     11021
     11019     11017     11020     11022     11019     11017     11020     11023
     11020     11023     11026     11027     11020     11023     11026     11028
     11020     11023     11026     11029     11021     11020     11023     11024
     11021     11020     11023     11025     11021     11020     11023     11026
     11022     11020     11023     11024     11022     11020     11023     11025
     11022     11020     11023     11026     11023     11026     11029     11030
     11023     11026     11029     11031     11023     11026     11029     11032
     11024     11023     11026     11027     11024     11023     11026     11028
     11024     11023     11026     11029     11025     11023     11026     11027
     11025     11023     11026     11028     11025     11023     11026     11029
     11026     11029     11032     11033     11026     11029     11032     11034
     11026     11029     11032     11035     11027     11026     11029     11030
     11027     11026     11029     11031     11027     11026     11029     11032
     11028     11026     11029     11030     11028     11026     11029     11031
     11028     11026     11029     11032     11029     11032     11035     11036
     11029     11032     11035     11037     11029     11032     11035     11038
     11030     11029     11032     11033     11030     11029     11032     11034
     11030     11029     11032     11035     11031     11029     11032     11033
     11031     11029     11032     11034     11031     11029     11032     11035
     11032     11035     11038     11039     11032     11035     11038     11040
     11032     11035     11038     11041     11033     11032     11035     11036
     11033     11032     11035     11037     11033     11032     11035     11038
     11034     11032     11035     11036     11034     11032     11035     11037
     11034     11032     11035     11038     11035     11038     11041     11042
     11035     11038     11041     11043     11035     11038     11041     11044
     11036     11035     11038     11039     11036     11035     11038     11040
     11036     11035     11038     11041     11037     11035     11038     11039
     11037     11035     11038     11040     11037     11035     11038     11041
     11038     11041     11044     11045     11038     11041     11044     11046
     11038     11041     11044     11047     11039     11038     11041     11042
     11039     11038     11041     11043     11039     11038     11041     11044
     11040     11038     11041     11042     11040     11038     11041     11043
     11040     11038     11041     11044     11041     11044     11047     11048
     11041     11044     11047     11049     11041     11044     11047     11050
     11042     11041     11044     11045     11042     11041     11044     11046
     11042     11041     11044     11047     11043     11041     11044     11045
     11043     11041     11044     11046     11043     11041     11044     11047
     11044     11047     11050     11051     11044     11047     11050     11052
     11044     11047     11050     11053     11045     11044     11047     11048
     11045     11044     11047     11049     11045     11044     11047     11050
     11046     11044     11047     11048     11046     11044     11047     11049
     11046     11044     11047     11050     11047     11050     11053     11054
     11047     11050     11053     11055     11047     11050     11053     11056
     11048     11047     11050     11051     11048     11047     11050     11052
     11048     11047     11050     11053     11049     11047     11050     11051
     11049     11047     11050     11052     11049     11047     11050     11053
     11051     11050     11053     11054     11051     11050     11053     11055
     11051     11050     11053     11056     11052     11050     11053     11054
     11052     11050     11053     11055     11052     11050     11053     11056
     11057     11058     11073     11074     11057     11058     11073     11075
     11057     11058     11073     11079     11058     11057     11061     11062
     11058     11057     11061     11063     11058     11057     11061     11064
     11058     11057     11065     11066     11058     11057     11065     11067
     11058     11057     11065     11068     11058     11057     11069     11070
     11058     11057     11069     11071     11058     11057     11069     11072
     11058     11073     11079     11076     11059     11058     11057     11061
     11059     11058     11057     11065     11059     11058     11057     11069
     11059     11058     11073     11074     11059     11058     11073     11075
     11059     11058     11073     11079     11060     11058     11057     11061
     11060     11058     11057     11065     11060     11058     11057     11069
     11060     11058     11073     11074     11060     11058     11073     11075
     11060     11058     11073     11079     11061     11057     11058     11073
     11061     11057     11065     11066     11061     11057     11065     11067
     11061     11057     11065     11068     11061     11057     11069     11070
     11061     11057     11069     11071     11061     11057     11069     11072
     11062     11061     11057     11065     11062     11061     11057     11069
     11063     11061     11057     11065     11063     11061     11057     11069
     11064     11061     11057     11065     11064     11061     11057     11069
     11065     11057     11058     11073     11065     11057     11069     11070
     11065     11057     11069     11071     11065     11057     11069     11072
     11066     11065     11057     11069     11067     11065     11057     11069
     11068     11065     11057     11069     11069     11057     11058     11073
     11073     11079     11076     11077     11073     11079     11076     11078
     11073     11079     11076     11080     11074     11073     11079     11076
     11075     11073     11079     11076     11076     11080     11081     11082
     11076     11080     11081     11083     11076     11080     11081     11084
     11077     11076     11080     11081     11078     11076     11080     11081
     11079     11076     11080     11081     11080     11081     11084     11085
     11080     11081     11084     11086     11080     11081     11084     11092
     11081     11084     11086     11087     11081     11084     11092     11093
     11081     11084     11092     11094     11081     11084     11092     11095
     11082     11081     11084     11085     11082     11081     11084     11086
     11082     11081     11084     11092     11083     11081     11084     11085
     11083     11081     11084     11086     11083     11081     11084     11092
     11084     11086     11087     11088     11084     11086     11087     11089
     11084     11092     11095     11096     11085     11084     11086     11087
     11085     11084     11092     11093     11085     11084     11092     11094
     11085     11084     11092     11095     11086     11084     11092     11093
     11086     11084     11092     11094     11086     11084     11092     11095
     11086     11087     11089     11090     11086     11087     11089     11091
     11086     11087     11089     11101     11087     11086     11084     11092
     11087     11089     11101     11102     11087     11089     11101     11103
     11087     11089     11101     11104     11088     11087     11089     11090
     11088     11087     11089     11091     11088     11087     11089     11101
     11089     11101     11104     11105     11089     11101     11104     11106
     11089     11101     11104     11107     11090     11089     11101     11102
     11090     11089     11101     11103     11090     11089     11101     11104
     11091     11089     11101     11102     11091     11089     11101     11103
     11091     11089     11101     11104     11092     11095     11096     11097
     11092     11095     11096     11098     11093     11092     11095     11096
     11094     11092     11095     11096     11095     11096     11098     11099
     11095     11096     11098     11100     11095     11096     11098     11148
     11096     11098     11148     11149     11096     11098     11148     11150
     11096     11098     11148     11151     11097     11096     11098     11099
     11097     11096     11098     11100     11097     11096     11098     11148
     11098     11148     11151     11152     11098     11148     11151     11153
     11098     11148     11151     11154     11099     11098     11148     11149
     11099     11098     11148     11150     11099     11098     11148     11151
     11100     11098     11148     11149     11100     11098     11148     11150
     11100     11098     11148     11151     11101     11104     11107     11108
     11101     11104     11107     11109     11101     11104     11107     11110
     11102     11101     11104     11105     11102     11101     11104     11106
     11102     11101     11104     11107     11103     11101     11104     11105
     11103     11101     11104     11106     11103     11101     11104     11107
     11104     11107     11110     11111     11104     11107     11110     11112
     11104     11107     11110     11113     11105     11104     11107     11108
     11105     11104     11107     11109     11105     11104     11107     11110
     11106     11104     11107     11108     11106     11104     11107     11109
     11106     11104     11107     11110     11107     11110     11113     11114
     11107     11110     11113     11115     11107     11110     11113     11116
     11108     11107     11110     11111     11108     11107     11110     11112
     11108     11107     11110     11113     11109     11107     11110     11111
     11109     11107     11110     11112     11109     11107     11110     11113
     11110     11113     11116     11117     11110     11113     11116     11118
     11110     11113     11116     11119     11111     11110     11113     11114
     11111     11110     11113     11115     11111     11110     11113     11116
     11112     11110     11113     11114     11112     11110     11113     11115
     11112     11110     11113     11116     11113     11116     11119     11120
     11113     11116     11119     11121     11114     11113     11116     11117
     11114     11113     11116     11118     11114     11113     11116     11119
     11115     11113     11116     11117     11115     11113     11116     11118
     11115     11113     11116     11119     11116     11119     11121     11122
     11116     11119     11121     11123     11117     11116     11119     11120
     11117     11116     11119     11121     11118     11116     11119     11120
     11118     11116     11119     11121     11119     11121     11123     11124
     11119     11121     11123     11125     11119     11121     11123     11126
     11120     11119     11121     11122     11120     11119     11121     11123
     11121     11123     11126     11127     11121     11123     11126     11128
     11121     11123     11126     11129     11122     11121     11123     11124
     11122     11121     11123     11125     11122     11121     11123     11126
     11123     11126     11129     11130     11123     11126     11129     11131
     11123     11126     11129     11132     11124     11123     11126     11127
     11124     11123     11126     11128     11124     11123     11126     11129
     11125     11123     11126     11127     11125     11123     11126     11128
     11125     11123     11126     11129     11126     11129     11132     11133
     11126     11129     11132     11134     11126     11129     11132     11135
     11127     11126     11129     11130     11127     11126     11129     11131
     11127     11126     11129     11132     11128     11126     11129     11130
     11128     11126     11129     11131     11128     11126     11129     11132
     11129     11132     11135     11136     11129     11132     11135     11137
     11129     11132     11135     11138     11130     11129     11132     11133
     11130     11129     11132     11134     11130     11129     11132     11135
     11131     11129     11132     11133     11131     11129     11132     11134
     11131     11129     11132     11135     11132     11135     11138     11139
     11132     11135     11138     11140     11132     11135     11138     11141
     11133     11132     11135     11136     11133     11132     11135     11137
     11133     11132     11135     11138     11134     11132     11135     11136
     11134     11132     11135     11137     11134     11132     11135     11138
     11135     11138     11141     11142     11135     11138     11141     11143
     11135     11138     11141     11144     11136     11135     11138     11139
     11136     11135     11138     11140     11136     11135     11138     11141
     11137     11135     11138     11139     11137     11135     11138     11140
     11137     11135     11138     11141     11138     11141     11144     11145
     11138     11141     11144     11146     11138     11141     11144     11147
     11139     11138     11141     11142     11139     11138     11141     11143
     11139     11138     11141     11144     11140     11138     11141     11142
     11140     11138     11141     11143     11140     11138     11141     11144
     11142     11141     11144     11145     11142     11141     11144     11146
     11142     11141     11144     11147     11143     11141     11144     11145
     11143     11141     11144     11146     11143     11141     11144     11147
     11148     11151     11154     11155     11148     11151     11154     11156
     11148     11151     11154     11157     11149     11148     11151     11152
     11149     11148     11151     11153     11149     11148     11151     11154
     11150     11148     11151     11152     11150     11148     11151     11153
     11150     11148     11151     11154     11151     11154     11157     11158
     11151     11154     11157     11159     11151     11154     11157     11160
     11152     11151     11154     11155     11152     11151     11154     11156
     11152     11151     11154     11157     11153     11151     11154     11155
     11153     11151     11154     11156     11153     11151     11154     11157
     11154     11157     11160     11161     11154     11157     11160     11162
     11154     11157     11160     11163     11155     11154     11157     11158
     11155     11154     11157     11159     11155     11154     11157     11160
     11156     11154     11157     11158     11156     11154     11157     11159
     11156     11154     11157     11160     11157     11160     11163     11164
     11157     11160     11163     11165     11157     11160     11163     11166
     11158     11157     11160     11161     11158     11157     11160     11162
     11158     11157     11160     11163     11159     11157     11160     11161
     11159     11157     11160     11162     11159     11157     11160     11163
     11160     11163     11166     11167     11160     11163     11166     11168
     11160     11163     11166     11169     11161     11160     11163     11164
     11161     11160     11163     11165     11161     11160     11163     11166
     11162     11160     11163     11164     11162     11160     11163     11165
     11162     11160     11163     11166     11163     11166     11169     11170
     11163     11166     11169     11171     11163     11166     11169     11172
     11164     11163     11166     11167     11164     11163     11166     11168
     11164     11163     11166     11169     11165     11163     11166     11167
     11165     11163     11166     11168     11165     11163     11166     11169
     11166     11169     11172     11173     11166     11169     11172     11174
     11166     11169     11172     11175     11167     11166     11169     11170
     11167     11166     11169     11171     11167     11166     11169     11172
     11168     11166     11169     11170     11168     11166     11169     11171
     11168     11166     11169     11172     11169     11172     11175     11176
     11169     11172     11175     11177     11169     11172     11175     11178
     11170     11169     11172     11173     11170     11169     11172     11174
     11170     11169     11172     11175     11171     11169     11172     11173
     11171     11169     11172     11174     11171     11169     11172     11175
     11172     11175     11178     11179     11172     11175     11178     11180
     11172     11175     11178     11181     11173     11172     11175     11176
     11173     11172     11175     11177     11173     11172     11175     11178
     11174     11172     11175     11176     11174     11172     11175     11177
     11174     11172     11175     11178     11175     11178     11181     11182
     11175     11178     11181     11183     11175     11178     11181     11184
     11176     11175     11178     11179     11176     11175     11178     11180
     11176     11175     11178     11181     11177     11175     11178     11179
     11177     11175     11178     11180     11177     11175     11178     11181
     11178     11181     11184     11185     11178     11181     11184     11186
     11178     11181     11184     11187     11179     11178     11181     11182
     11179     11178     11181     11183     11179     11178     11181     11184
     11180     11178     11181     11182     11180     11178     11181     11183
     11180     11178     11181     11184     11181     11184     11187     11188
     11181     11184     11187     11189     11181     11184     11187     11190
     11182     11181     11184     11185     11182     11181     11184     11186
     11182     11181     11184     11187     11183     11181     11184     11185
     11183     11181     11184     11186     11183     11181     11184     11187
     11185     11184     11187     11188     11185     11184     11187     11189
     11185     11184     11187     11190     11186     11184     11187     11188
     11186     11184     11187     11189     11186     11184     11187     11190
     11191     11192     11207     11208     11191     11192     11207     11209
     11191     11192     11207     11213     11192     11191     11195     11196
     11192     11191     11195     11197     11192     11191     11195     11198
     11192     11191     11199     11200     11192     11191     11199     11201
     11192     11191     11199     11202     11192     11191     11203     11204
     11192     11191     11203     11205     11192     11191     11203     11206
     11192     11207     11213     11210     11193     11192     11191     11195
     11193     11192     11191     11199     11193     11192     11191     11203
     11193     11192     11207     11208     11193     11192     11207     11209
     11193     11192     11207     11213     11194     11192     11191     11195
     11194     11192     11191     11199     11194     11192     11191     11203
     11194     11192     11207     11208     11194     11192     11207     11209
     11194     11192     11207     11213     11195     11191     11192     11207
     11195     11191     11199     11200     11195     11191     11199     11201
     11195     11191     11199     11202     11195     11191     11203     11204
     11195     11191     11203     11205     11195     11191     11203     11206
     11196     11195     11191     11199     11196     11195     11191     11203
     11197     11195     11191     11199     11197     11195     11191     11203
     11198     11195     11191     11199     11198     11195     11191     11203
     11199     11191     11192     11207     11199     11191     11203     11204
     11199     11191     11203     11205     11199     11191     11203     11206
     11200     11199     11191     11203     11201     11199     11191     11203
     11202     11199     11191     11203     11203     11191     11192     11207
     11207     11213     11210     11211     11207     11213     11210     11212
     11207     11213     11210     11214     11208     11207     11213     11210
     11209     11207     11213     11210     11210     11214     11215     11216
     11210     11214     11215     11217     11210     11214     11215     11218
     11211     11210     11214     11215     11212     11210     11214     11215
     11213     11210     11214     11215     11214     11215     11218     11219
     11214     11215     11218     11220     11214     11215     11218     11226
     11215     11218     11220     11221     11215     11218     11226     11227
     11215     11218     11226     11228     11215     11218     11226     11229
     11216     11215     11218     11219     11216     11215     11218     11220
     11216     11215     11218     11226     11217     11215     11218     11219
     11217     11215     11218     11220     11217     11215     11218     11226
     11218     11220     11221     11222     11218     11220     11221     11223
     11218     11226     11229     11230     11219     11218     11220     11221
     11219     11218     11226     11227     11219     11218     11226     11228
     11219     11218     11226     11229     11220     11218     11226     11227
     11220     11218     11226     11228     11220     11218     11226     11229
     11220     11221     11223     11224     11220     11221     11223     11225
     11220     11221     11223     11235     11221     11220     11218     11226
     11221     11223     11235     11236     11221     11223     11235     11237
     11221     11223     11235     11238     11222     11221     11223     11224
     11222     11221     11223     11225     11222     11221     11223     11235
     11223     11235     11238     11239     11223     11235     11238     11240
     11223     11235     11238     11241     11224     11223     11235     11236
     11224     11223     11235     11237     11224     11223     11235     11238
     11225     11223     11235     11236     11225     11223     11235     11237
     11225     11223     11235     11238     11226     11229     11230     11231
     11226     11229     11230     11232     11227     11226     11229     11230
     11228     11226     11229     11230     11229     11230     11232     11233
     11229     11230     11232     11234     11229     11230     11232     11282
     11230     11232     11282     11283     11230     11232     11282     11284
     11230     11232     11282     11285     11231     11230     11232     11233
     11231     11230     11232     11234     11231     11230     11232     11282
     11232     11282     11285     11286     11232     11282     11285     11287
     11232     11282     11285     11288     11233     11232     11282     11283
     11233     11232     11282     11284     11233     11232     11282     11285
     11234     11232     11282     11283     11234     11232     11282     11284
     11234     11232     11282     11285     11235     11238     11241     11242
     11235     11238     11241     11243     11235     11238     11241     11244
     11236     11235     11238     11239     11236     11235     11238     11240
     11236     11235     11238     11241     11237     11235     11238     11239
     11237     11235     11238     11240     11237     11235     11238     11241
     11238     11241     11244     11245     11238     11241     11244     11246
     11238     11241     11244     11247     11239     11238     11241     11242
     11239     11238     11241     11243     11239     11238     11241     11244
     11240     11238     11241     11242     11240     11238     11241     11243
     11240     11238     11241     11244     11241     11244     11247     11248
     11241     11244     11247     11249     11241     11244     11247     11250
     11242     11241     11244     11245     11242     11241     11244     11246
     11242     11241     11244     11247     11243     11241     11244     11245
     11243     11241     11244     11246     11243     11241     11244     11247
     11244     11247     11250     11251     11244     11247     11250     11252
     11244     11247     11250     11253     11245     11244     11247     11248
     11245     11244     11247     11249     11245     11244     11247     11250
     11246     11244     11247     11248     11246     11244     11247     11249
     11246     11244     11247     11250     11247     11250     11253     11254
     11247     11250     11253     11255     11248     11247     11250     11251
     11248     11247     11250     11252     11248     11247     11250     11253
     11249     11247     11250     11251     11249     11247     11250     11252
     11249     11247     11250     11253     11250     11253     11255     11256
     11250     11253     11255     11257     11251     11250     11253     11254
     11251     11250     11253     11255     11252     11250     11253     11254
     11252     11250     11253     11255     11253     11255     11257     11258
     11253     11255     11257     11259     11253     11255     11257     11260
     11254     11253     11255     11256     11254     11253     11255     11257
     11255     11257     11260     11261     11255     11257     11260     11262
     11255     11257     11260     11263     11256     11255     11257     11258
     11256     11255     11257     11259     11256     11255     11257     11260
     11257     11260     11263     11264     11257     11260     11263     11265
     11257     11260     11263     11266     11258     11257     11260     11261
     11258     11257     11260     11262     11258     11257     11260     11263
     11259     11257     11260     11261     11259     11257     11260     11262
     11259     11257     11260     11263     11260     11263     11266     11267
     11260     11263     11266     11268     11260     11263     11266     11269
     11261     11260     11263     11264     11261     11260     11263     11265
     11261     11260     11263     11266     11262     11260     11263     11264
     11262     11260     11263     11265     11262     11260     11263     11266
     11263     11266     11269     11270     11263     11266     11269     11271
     11263     11266     11269     11272     11264     11263     11266     11267
     11264     11263     11266     11268     11264     11263     11266     11269
     11265     11263     11266     11267     11265     11263     11266     11268
     11265     11263     11266     11269     11266     11269     11272     11273
     11266     11269     11272     11274     11266     11269     11272     11275
     11267     11266     11269     11270     11267     11266     11269     11271
     11267     11266     11269     11272     11268     11266     11269     11270
     11268     11266     11269     11271     11268     11266     11269     11272
     11269     11272     11275     11276     11269     11272     11275     11277
     11269     11272     11275     11278     11270     11269     11272     11273
     11270     11269     11272     11274     11270     11269     11272     11275
     11271     11269     11272     11273     11271     11269     11272     11274
     11271     11269     11272     11275     11272     11275     11278     11279
     11272     11275     11278     11280     11272     11275     11278     11281
     11273     11272     11275     11276     11273     11272     11275     11277
     11273     11272     11275     11278     11274     11272     11275     11276
     11274     11272     11275     11277     11274     11272     11275     11278
     11276     11275     11278     11279     11276     11275     11278     11280
     11276     11275     11278     11281     11277     11275     11278     11279
     11277     11275     11278     11280     11277     11275     11278     11281
     11282     11285     11288     11289     11282     11285     11288     11290
     11282     11285     11288     11291     11283     11282     11285     11286
     11283     11282     11285     11287     11283     11282     11285     11288
     11284     11282     11285     11286     11284     11282     11285     11287
     11284     11282     11285     11288     11285     11288     11291     11292
     11285     11288     11291     11293     11285     11288     11291     11294
     11286     11285     11288     11289     11286     11285     11288     11290
     11286     11285     11288     11291     11287     11285     11288     11289
     11287     11285     11288     11290     11287     11285     11288     11291
     11288     11291     11294     11295     11288     11291     11294     11296
     11288     11291     11294     11297     11289     11288     11291     11292
     11289     11288     11291     11293     11289     11288     11291     11294
     11290     11288     11291     11292     11290     11288     11291     11293
     11290     11288     11291     11294     11291     11294     11297     11298
     11291     11294     11297     11299     11291     11294     11297     11300
     11292     11291     11294     11295     11292     11291     11294     11296
     11292     11291     11294     11297     11293     11291     11294     11295
     11293     11291     11294     11296     11293     11291     11294     11297
     11294     11297     11300     11301     11294     11297     11300     11302
     11294     11297     11300     11303     11295     11294     11297     11298
     11295     11294     11297     11299     11295     11294     11297     11300
     11296     11294     11297     11298     11296     11294     11297     11299
     11296     11294     11297     11300     11297     11300     11303     11304
     11297     11300     11303     11305     11297     11300     11303     11306
     11298     11297     11300     11301     11298     11297     11300     11302
     11298     11297     11300     11303     11299     11297     11300     11301
     11299     11297     11300     11302     11299     11297     11300     11303
     11300     11303     11306     11307     11300     11303     11306     11308
     11300     11303     11306     11309     11301     11300     11303     11304
     11301     11300     11303     11305     11301     11300     11303     11306
     11302     11300     11303     11304     11302     11300     11303     11305
     11302     11300     11303     11306     11303     11306     11309     11310
     11303     11306     11309     11311     11303     11306     11309     11312
     11304     11303     11306     11307     11304     11303     11306     11308
     11304     11303     11306     11309     11305     11303     11306     11307
     11305     11303     11306     11308     11305     11303     11306     11309
     11306     11309     11312     11313     11306     11309     11312     11314
     11306     11309     11312     11315     11307     11306     11309     11310
     11307     11306     11309     11311     11307     11306     11309     11312
     11308     11306     11309     11310     11308     11306     11309     11311
     11308     11306     11309     11312     11309     11312     11315     11316
     11309     11312     11315     11317     11309     11312     11315     11318
     11310     11309     11312     11313     11310     11309     11312     11314
     11310     11309     11312     11315     11311     11309     11312     11313
     11311     11309     11312     11314     11311     11309     11312     11315
     11312     11315     11318     11319     11312     11315     11318     11320
     11312     11315     11318     11321     11313     11312     11315     11316
     11313     11312     11315     11317     11313     11312     11315     11318
     11314     11312     11315     11316     11314     11312     11315     11317
     11314     11312     11315     11318     11315     11318     11321     11322
     11315     11318     11321     11323     11315     11318     11321     11324
     11316     11315     11318     11319     11316     11315     11318     11320
     11316     11315     11318     11321     11317     11315     11318     11319
     11317     11315     11318     11320     11317     11315     11318     11321
     11319     11318     11321     11322     11319     11318     11321     11323
     11319     11318     11321     11324     11320     11318     11321     11322
     11320     11318     11321     11323     11320     11318     11321     11324
     11325     11326     11341     11342     11325     11326     11341     11343
     11325     11326     11341     11347     11326     11325     11329     11330
     11326     11325     11329     11331     11326     11325     11329     11332
     11326     11325     11333     11334     11326     11325     11333     11335
     11326     11325     11333     11336     11326     11325     11337     11338
     11326     11325     11337     11339     11326     11325     11337     11340
     11326     11341     11347     11344     11327     11326     11325     11329
     11327     11326     11325     11333     11327     11326     11325     11337
     11327     11326     11341     11342     11327     11326     11341     11343
     11327     11326     11341     11347     11328     11326     11325     11329
     11328     11326     11325     11333     11328     11326     11325     11337
     11328     11326     11341     11342     11328     11326     11341     11343
     11328     11326     11341     11347     11329     11325     11326     11341
     11329     11325     11333     11334     11329     11325     11333     11335
     11329     11325     11333     11336     11329     11325     11337     11338
     11329     11325     11337     11339     11329     11325     11337     11340
     11330     11329     11325     11333     11330     11329     11325     11337
     11331     11329     11325     11333     11331     11329     11325     11337
     11332     11329     11325     11333     11332     11329     11325     11337
     11333     11325     11326     11341     11333     11325     11337     11338
     11333     11325     11337     11339     11333     11325     11337     11340
     11334     11333     11325     11337     11335     11333     11325     11337
     11336     11333     11325     11337     11337     11325     11326     11341
     11341     11347     11344     11345     11341     11347     11344     11346
     11341     11347     11344     11348     11342     11341     11347     11344
     11343     11341     11347     11344     11344     11348     11349     11350
     11344     11348     11349     11351     11344     11348     11349     11352
     11345     11344     11348     11349     11346     11344     11348     11349
     11347     11344     11348     11349     11348     11349     11352     11353
     11348     11349     11352     11354     11348     11349     11352     11360
     11349     11352     11354     11355     11349     11352     11360     11361
     11349     11352     11360     11362     11349     11352     11360     11363
     11350     11349     11352     11353     11350     11349     11352     11354
     11350     11349     11352     11360     11351     11349     11352     11353
     11351     11349     11352     11354     11351     11349     11352     11360
     11352     11354     11355     11356     11352     11354     11355     11357
     11352     11360     11363     11364     11353     11352     11354     11355
     11353     11352     11360     11361     11353     11352     11360     11362
     11353     11352     11360     11363     11354     11352     11360     11361
     11354     11352     11360     11362     11354     11352     11360     11363
     11354     11355     11357     11358     11354     11355     11357     11359
     11354     11355     11357     11369     11355     11354     11352     11360
     11355     11357     11369     11370     11355     11357     11369     11371
     11355     11357     11369     11372     11356     11355     11357     11358
     11356     11355     11357     11359     11356     11355     11357     11369
     11357     11369     11372     11373     11357     11369     11372     11374
     11357     11369     11372     11375     11358     11357     11369     11370
     11358     11357     11369     11371     11358     11357     11369     11372
     11359     11357     11369     11370     11359     11357     11369     11371
     11359     11357     11369     11372     11360     11363     11364     11365
     11360     11363     11364     11366     11361     11360     11363     11364
     11362     11360     11363     11364     11363     11364     11366     11367
     11363     11364     11366     11368     11363     11364     11366     11416
     11364     11366     11416     11417     11364     11366     11416     11418
     11364     11366     11416     11419     11365     11364     11366     11367
     11365     11364     11366     11368     11365     11364     11366     11416
     11366     11416     11419     11420     11366     11416     11419     11421
     11366     11416     11419     11422     11367     11366     11416     11417
     11367     11366     11416     11418     11367     11366     11416     11419
     11368     11366     11416     11417     11368     11366     11416     11418
     11368     11366     11416     11419     11369     11372     11375     11376
     11369     11372     11375     11377     11369     11372     11375     11378
     11370     11369     11372     11373     11370     11369     11372     11374
     11370     11369     11372     11375     11371     11369     11372     11373
     11371     11369     11372     11374     11371     11369     11372     11375
     11372     11375     11378     11379     11372     11375     11378     11380
     11372     11375     11378     11381     11373     11372     11375     11376
     11373     11372     11375     11377     11373     11372     11375     11378
     11374     11372     11375     11376     11374     11372     11375     11377
     11374     11372     11375     11378     11375     11378     11381     11382
     11375     11378     11381     11383     11375     11378     11381     11384
     11376     11375     11378     11379     11376     11375     11378     11380
     11376     11375     11378     11381     11377     11375     11378     11379
     11377     11375     11378     11380     11377     11375     11378     11381
     11378     11381     11384     11385     11378     11381     11384     11386
     11378     11381     11384     11387     11379     11378     11381     11382
     11379     11378     11381     11383     11379     11378     11381     11384
     11380     11378     11381     11382     11380     11378     11381     11383
     11380     11378     11381     11384     11381     11384     11387     11388
     11381     11384     11387     11389     11382     11381     11384     11385
     11382     11381     11384     11386     11382     11381     11384     11387
     11383     11381     11384     11385     11383     11381     11384     11386
     11383     11381     11384     11387     11384     11387     11389     11390
     11384     11387     11389     11391     11385     11384     11387     11388
     11385     11384     11387     11389     11386     11384     11387     11388
     11386     11384     11387     11389     11387     11389     11391     11392
     11387     11389     11391     11393     11387     11389     11391     11394
     11388     11387     11389     11390     11388     11387     11389     11391
     11389     11391     11394     11395     11389     11391     11394     11396
     11389     11391     11394     11397     11390     11389     11391     11392
     11390     11389     11391     11393     11390     11389     11391     11394
     11391     11394     11397     11398     11391     11394     11397     11399
     11391     11394     11397     11400     11392     11391     11394     11395
     11392     11391     11394     11396     11392     11391     11394     11397
     11393     11391     11394     11395     11393     11391     11394     11396
     11393     11391     11394     11397     11394     11397     11400     11401
     11394     11397     11400     11402     11394     11397     11400     11403
     11395     11394     11397     11398     11395     11394     11397     11399
     11395     11394     11397     11400     11396     11394     11397     11398
     11396     11394     11397     11399     11396     11394     11397     11400
     11397     11400     11403     11404     11397     11400     11403     11405
     11397     11400     11403     11406     11398     11397     11400     11401
     11398     11397     11400     11402     11398     11397     11400     11403
     11399     11397     11400     11401     11399     11397     11400     11402
     11399     11397     11400     11403     11400     11403     11406     11407
     11400     11403     11406     11408     11400     11403     11406     11409
     11401     11400     11403     11404     11401     11400     11403     11405
     11401     11400     11403     11406     11402     11400     11403     11404
     11402     11400     11403     11405     11402     11400     11403     11406
     11403     11406     11409     11410     11403     11406     11409     11411
     11403     11406     11409     11412     11404     11403     11406     11407
     11404     11403     11406     11408     11404     11403     11406     11409
     11405     11403     11406     11407     11405     11403     11406     11408
     11405     11403     11406     11409     11406     11409     11412     11413
     11406     11409     11412     11414     11406     11409     11412     11415
     11407     11406     11409     11410     11407     11406     11409     11411
     11407     11406     11409     11412     11408     11406     11409     11410
     11408     11406     11409     11411     11408     11406     11409     11412
     11410     11409     11412     11413     11410     11409     11412     11414
     11410     11409     11412     11415     11411     11409     11412     11413
     11411     11409     11412     11414     11411     11409     11412     11415
     11416     11419     11422     11423     11416     11419     11422     11424
     11416     11419     11422     11425     11417     11416     11419     11420
     11417     11416     11419     11421     11417     11416     11419     11422
     11418     11416     11419     11420     11418     11416     11419     11421
     11418     11416     11419     11422     11419     11422     11425     11426
     11419     11422     11425     11427     11419     11422     11425     11428
     11420     11419     11422     11423     11420     11419     11422     11424
     11420     11419     11422     11425     11421     11419     11422     11423
     11421     11419     11422     11424     11421     11419     11422     11425
     11422     11425     11428     11429     11422     11425     11428     11430
     11422     11425     11428     11431     11423     11422     11425     11426
     11423     11422     11425     11427     11423     11422     11425     11428
     11424     11422     11425     11426     11424     11422     11425     11427
     11424     11422     11425     11428     11425     11428     11431     11432
     11425     11428     11431     11433     11425     11428     11431     11434
     11426     11425     11428     11429     11426     11425     11428     11430
     11426     11425     11428     11431     11427     11425     11428     11429
     11427     11425     11428     11430     11427     11425     11428     11431
     11428     11431     11434     11435     11428     11431     11434     11436
     11428     11431     11434     11437     11429     11428     11431     11432
     11429     11428     11431     11433     11429     11428     11431     11434
     11430     11428     11431     11432     11430     11428     11431     11433
     11430     11428     11431     11434     11431     11434     11437     11438
     11431     11434     11437     11439     11431     11434     11437     11440
     11432     11431     11434     11435     11432     11431     11434     11436
     11432     11431     11434     11437     11433     11431     11434     11435
     11433     11431     11434     11436     11433     11431     11434     11437
     11434     11437     11440     11441     11434     11437     11440     11442
     11434     11437     11440     11443     11435     11434     11437     11438
     11435     11434     11437     11439     11435     11434     11437     11440
     11436     11434     11437     11438     11436     11434     11437     11439
     11436     11434     11437     11440     11437     11440     11443     11444
     11437     11440     11443     11445     11437     11440     11443     11446
     11438     11437     11440     11441     11438     11437     11440     11442
     11438     11437     11440     11443     11439     11437     11440     11441
     11439     11437     11440     11442     11439     11437     11440     11443
     11440     11443     11446     11447     11440     11443     11446     11448
     11440     11443     11446     11449     11441     11440     11443     11444
     11441     11440     11443     11445     11441     11440     11443     11446
     11442     11440     11443     11444     11442     11440     11443     11445
     11442     11440     11443     11446     11443     11446     11449     11450
     11443     11446     11449     11451     11443     11446     11449     11452
     11444     11443     11446     11447     11444     11443     11446     11448
     11444     11443     11446     11449     11445     11443     11446     11447
     11445     11443     11446     11448     11445     11443     11446     11449
     11446     11449     11452     11453     11446     11449     11452     11454
     11446     11449     11452     11455     11447     11446     11449     11450
     11447     11446     11449     11451     11447     11446     11449     11452
     11448     11446     11449     11450     11448     11446     11449     11451
     11448     11446     11449     11452     11449     11452     11455     11456
     11449     11452     11455     11457     11449     11452     11455     11458
     11450     11449     11452     11453     11450     11449     11452     11454
     11450     11449     11452     11455     11451     11449     11452     11453
     11451     11449     11452     11454     11451     11449     11452     11455
     11453     11452     11455     11456     11453     11452     11455     11457
     11453     11452     11455     11458     11454     11452     11455     11456
     11454     11452     11455     11457     11454     11452     11455     11458
     11459     11460     11475     11476     11459     11460     11475     11477
     11459     11460     11475     11481     11460     11459     11463     11464
     11460     11459     11463     11465     11460     11459     11463     11466
     11460     11459     11467     11468     11460     11459     11467     11469
     11460     11459     11467     11470     11460     11459     11471     11472
     11460     11459     11471     11473     11460     11459     11471     11474
     11460     11475     11481     11478     11461     11460     11459     11463
     11461     11460     11459     11467     11461     11460     11459     11471
     11461     11460     11475     11476     11461     11460     11475     11477
     11461     11460     11475     11481     11462     11460     11459     11463
     11462     11460     11459     11467     11462     11460     11459     11471
     11462     11460     11475     11476     11462     11460     11475     11477
     11462     11460     11475     11481     11463     11459     11460     11475
     11463     11459     11467     11468     11463     11459     11467     11469
     11463     11459     11467     11470     11463     11459     11471     11472
     11463     11459     11471     11473     11463     11459     11471     11474
     11464     11463     11459     11467     11464     11463     11459     11471
     11465     11463     11459     11467     11465     11463     11459     11471
     11466     11463     11459     11467     11466     11463     11459     11471
     11467     11459     11460     11475     11467     11459     11471     11472
     11467     11459     11471     11473     11467     11459     11471     11474
     11468     11467     11459     11471     11469     11467     11459     11471
     11470     11467     11459     11471     11471     11459     11460     11475
     11475     11481     11478     11479     11475     11481     11478     11480
     11475     11481     11478     11482     11476     11475     11481     11478
     11477     11475     11481     11478     11478     11482     11483     11484
     11478     11482     11483     11485     11478     11482     11483     11486
     11479     11478     11482     11483     11480     11478     11482     11483
     11481     11478     11482     11483     11482     11483     11486     11487
     11482     11483     11486     11488     11482     11483     11486     11494
     11483     11486     11488     11489     11483     11486     11494     11495
     11483     11486     11494     11496     11483     11486     11494     11497
     11484     11483     11486     11487     11484     11483     11486     11488
     11484     11483     11486     11494     11485     11483     11486     11487
     11485     11483     11486     11488     11485     11483     11486     11494
     11486     11488     11489     11490     11486     11488     11489     11491
     11486     11494     11497     11498     11487     11486     11488     11489
     11487     11486     11494     11495     11487     11486     11494     11496
     11487     11486     11494     11497     11488     11486     11494     11495
     11488     11486     11494     11496     11488     11486     11494     11497
     11488     11489     11491     11492     11488     11489     11491     11493
     11488     11489     11491     11503     11489     11488     11486     11494
     11489     11491     11503     11504     11489     11491     11503     11505
     11489     11491     11503     11506     11490     11489     11491     11492
     11490     11489     11491     11493     11490     11489     11491     11503
     11491     11503     11506     11507     11491     11503     11506     11508
     11491     11503     11506     11509     11492     11491     11503     11504
     11492     11491     11503     11505     11492     11491     11503     11506
     11493     11491     11503     11504     11493     11491     11503     11505
     11493     11491     11503     11506     11494     11497     11498     11499
     11494     11497     11498     11500     11495     11494     11497     11498
     11496     11494     11497     11498     11497     11498     11500     11501
     11497     11498     11500     11502     11497     11498     11500     11550
     11498     11500     11550     11551     11498     11500     11550     11552
     11498     11500     11550     11553     11499     11498     11500     11501
     11499     11498     11500     11502     11499     11498     11500     11550
     11500     11550     11553     11554     11500     11550     11553     11555
     11500     11550     11553     11556     11501     11500     11550     11551
     11501     11500     11550     11552     11501     11500     11550     11553
     11502     11500     11550     11551     11502     11500     11550     11552
     11502     11500     11550     11553     11503     11506     11509     11510
     11503     11506     11509     11511     11503     11506     11509     11512
     11504     11503     11506     11507     11504     11503     11506     11508
     11504     11503     11506     11509     11505     11503     11506     11507
     11505     11503     11506     11508     11505     11503     11506     11509
     11506     11509     11512     11513     11506     11509     11512     11514
     11506     11509     11512     11515     11507     11506     11509     11510
     11507     11506     11509     11511     11507     11506     11509     11512
     11508     11506     11509     11510     11508     11506     11509     11511
     11508     11506     11509     11512     11509     11512     11515     11516
     11509     11512     11515     11517     11509     11512     11515     11518
     11510     11509     11512     11513     11510     11509     11512     11514
     11510     11509     11512     11515     11511     11509     11512     11513
     11511     11509     11512     11514     11511     11509     11512     11515
     11512     11515     11518     11519     11512     11515     11518     11520
     11512     11515     11518     11521     11513     11512     11515     11516
     11513     11512     11515     11517     11513     11512     11515     11518
     11514     11512     11515     11516     11514     11512     11515     11517
     11514     11512     11515     11518     11515     11518     11521     11522
     11515     11518     11521     11523     11516     11515     11518     11519
     11516     11515     11518     11520     11516     11515     11518     11521
     11517     11515     11518     11519     11517     11515     11518     11520
     11517     11515     11518     11521     11518     11521     11523     11524
     11518     11521     11523     11525     11519     11518     11521     11522
     11519     11518     11521     11523     11520     11518     11521     11522
     11520     11518     11521     11523     11521     11523     11525     11526
     11521     11523     11525     11527     11521     11523     11525     11528
     11522     11521     11523     11524     11522     11521     11523     11525
     11523     11525     11528     11529     11523     11525     11528     11530
     11523     11525     11528     11531     11524     11523     11525     11526
     11524     11523     11525     11527     11524     11523     11525     11528
     11525     11528     11531     11532     11525     11528     11531     11533
     11525     11528     11531     11534     11526     11525     11528     11529
     11526     11525     11528     11530     11526     11525     11528     11531
     11527     11525     11528     11529     11527     11525     11528     11530
     11527     11525     11528     11531     11528     11531     11534     11535
     11528     11531     11534     11536     11528     11531     11534     11537
     11529     11528     11531     11532     11529     11528     11531     11533
     11529     11528     11531     11534     11530     11528     11531     11532
     11530     11528     11531     11533     11530     11528     11531     11534
     11531     11534     11537     11538     11531     11534     11537     11539
     11531     11534     11537     11540     11532     11531     11534     11535
     11532     11531     11534     11536     11532     11531     11534     11537
     11533     11531     11534     11535     11533     11531     11534     11536
     11533     11531     11534     11537     11534     11537     11540     11541
     11534     11537     11540     11542     11534     11537     11540     11543
     11535     11534     11537     11538     11535     11534     11537     11539
     11535     11534     11537     11540     11536     11534     11537     11538
     11536     11534     11537     11539     11536     11534     11537     11540
     11537     11540     11543     11544     11537     11540     11543     11545
     11537     11540     11543     11546     11538     11537     11540     11541
     11538     11537     11540     11542     11538     11537     11540     11543
     11539     11537     11540     11541     11539     11537     11540     11542
     11539     11537     11540     11543     11540     11543     11546     11547
     11540     11543     11546     11548     11540     11543     11546     11549
     11541     11540     11543     11544     11541     11540     11543     11545
     11541     11540     11543     11546     11542     11540     11543     11544
     11542     11540     11543     11545     11542     11540     11543     11546
     11544     11543     11546     11547     11544     11543     11546     11548
     11544     11543     11546     11549     11545     11543     11546     11547
     11545     11543     11546     11548     11545     11543     11546     11549
     11550     11553     11556     11557     11550     11553     11556     11558
     11550     11553     11556     11559     11551     11550     11553     11554
     11551     11550     11553     11555     11551     11550     11553     11556
     11552     11550     11553     11554     11552     11550     11553     11555
     11552     11550     11553     11556     11553     11556     11559     11560
     11553     11556     11559     11561     11553     11556     11559     11562
     11554     11553     11556     11557     11554     11553     11556     11558
     11554     11553     11556     11559     11555     11553     11556     11557
     11555     11553     11556     11558     11555     11553     11556     11559
     11556     11559     11562     11563     11556     11559     11562     11564
     11556     11559     11562     11565     11557     11556     11559     11560
     11557     11556     11559     11561     11557     11556     11559     11562
     11558     11556     11559     11560     11558     11556     11559     11561
     11558     11556     11559     11562     11559     11562     11565     11566
     11559     11562     11565     11567     11559     11562     11565     11568
     11560     11559     11562     11563     11560     11559     11562     11564
     11560     11559     11562     11565     11561     11559     11562     11563
     11561     11559     11562     11564     11561     11559     11562     11565
     11562     11565     11568     11569     11562     11565     11568     11570
     11562     11565     11568     11571     11563     11562     11565     11566
     11563     11562     11565     11567     11563     11562     11565     11568
     11564     11562     11565     11566     11564     11562     11565     11567
     11564     11562     11565     11568     11565     11568     11571     11572
     11565     11568     11571     11573     11565     11568     11571     11574
     11566     11565     11568     11569     11566     11565     11568     11570
     11566     11565     11568     11571     11567     11565     11568     11569
     11567     11565     11568     11570     11567     11565     11568     11571
     11568     11571     11574     11575     11568     11571     11574     11576
     11568     11571     11574     11577     11569     11568     11571     11572
     11569     11568     11571     11573     11569     11568     11571     11574
     11570     11568     11571     11572     11570     11568     11571     11573
     11570     11568     11571     11574     11571     11574     11577     11578
     11571     11574     11577     11579     11571     11574     11577     11580
     11572     11571     11574     11575     11572     11571     11574     11576
     11572     11571     11574     11577     11573     11571     11574     11575
     11573     11571     11574     11576     11573     11571     11574     11577
     11574     11577     11580     11581     11574     11577     11580     11582
     11574     11577     11580     11583     11575     11574     11577     11578
     11575     11574     11577     11579     11575     11574     11577     11580
     11576     11574     11577     11578     11576     11574     11577     11579
     11576     11574     11577     11580     11577     11580     11583     11584
     11577     11580     11583     11585     11577     11580     11583     11586
     11578     11577     11580     11581     11578     11577     11580     11582
     11578     11577     11580     11583     11579     11577     11580     11581
     11579     11577     11580     11582     11579     11577     11580     11583
     11580     11583     11586     11587     11580     11583     11586     11588
     11580     11583     11586     11589     11581     11580     11583     11584
     11581     11580     11583     11585     11581     11580     11583     11586
     11582     11580     11583     11584     11582     11580     11583     11585
     11582     11580     11583     11586     11583     11586     11589     11590
     11583     11586     11589     11591     11583     11586     11589     11592
     11584     11583     11586     11587     11584     11583     11586     11588
     11584     11583     11586     11589     11585     11583     11586     11587
     11585     11583     11586     11588     11585     11583     11586     11589
     11587     11586     11589     11590     11587     11586     11589     11591
     11587     11586     11589     11592     11588     11586     11589     11590
     11588     11586     11589     11591     11588     11586     11589     11592
     11593     11594     11609     11610     11593     11594     11609     11611
     11593     11594     11609     11615     11594     11593     11597     11598
     11594     11593     11597     11599     11594     11593     11597     11600
     11594     11593     11601     11602     11594     11593     11601     11603
     11594     11593     11601     11604     11594     11593     11605     11606
     11594     11593     11605     11607     11594     11593     11605     11608
     11594     11609     11615     11612     11595     11594     11593     11597
     11595     11594     11593     11601     11595     11594     11593     11605
     11595     11594     11609     11610     11595     11594     11609     11611
     11595     11594     11609     11615     11596     11594     11593     11597
     11596     11594     11593     11601     11596     11594     11593     11605
     11596     11594     11609     11610     11596     11594     11609     11611
     11596     11594     11609     11615     11597     11593     11594     11609
     11597     11593     11601     11602     11597     11593     11601     11603
     11597     11593     11601     11604     11597     11593     11605     11606
     11597     11593     11605     11607     11597     11593     11605     11608
     11598     11597     11593     11601     11598     11597     11593     11605
     11599     11597     11593     11601     11599     11597     11593     11605
     11600     11597     11593     11601     11600     11597     11593     11605
     11601     11593     11594     11609     11601     11593     11605     11606
     11601     11593     11605     11607     11601     11593     11605     11608
     11602     11601     11593     11605     11603     11601     11593     11605
     11604     11601     11593     11605     11605     11593     11594     11609
     11609     11615     11612     11613     11609     11615     11612     11614
     11609     11615     11612     11616     11610     11609     11615     11612
     11611     11609     11615     11612     11612     11616     11617     11618
     11612     11616     11617     11619     11612     11616     11617     11620
     11613     11612     11616     11617     11614     11612     11616     11617
     11615     11612     11616     11617     11616     11617     11620     11621
     11616     11617     11620     11622     11616     11617     11620     11628
     11617     11620     11622     11623     11617     11620     11628     11629
     11617     11620     11628     11630     11617     11620     11628     11631
     11618     11617     11620     11621     11618     11617     11620     11622
     11618     11617     11620     11628     11619     11617     11620     11621
     11619     11617     11620     11622     11619     11617     11620     11628
     11620     11622     11623     11624     11620     11622     11623     11625
     11620     11628     11631     11632     11621     11620     11622     11623
     11621     11620     11628     11629     11621     11620     11628     11630
     11621     11620     11628     11631     11622     11620     11628     11629
     11622     11620     11628     11630     11622     11620     11628     11631
     11622     11623     11625     11626     11622     11623     11625     11627
     11622     11623     11625     11637     11623     11622     11620     11628
     11623     11625     11637     11638     11623     11625     11637     11639
     11623     11625     11637     11640     11624     11623     11625     11626
     11624     11623     11625     11627     11624     11623     11625     11637
     11625     11637     11640     11641     11625     11637     11640     11642
     11625     11637     11640     11643     11626     11625     11637     11638
     11626     11625     11637     11639     11626     11625     11637     11640
     11627     11625     11637     11638     11627     11625     11637     11639
     11627     11625     11637     11640     11628     11631     11632     11633
     11628     11631     11632     11634     11629     11628     11631     11632
     11630     11628     11631     11632     11631     11632     11634     11635
     11631     11632     11634     11636     11631     11632     11634     11684
     11632     11634     11684     11685     11632     11634     11684     11686
     11632     11634     11684     11687     11633     11632     11634     11635
     11633     11632     11634     11636     11633     11632     11634     11684
     11634     11684     11687     11688     11634     11684     11687     11689
     11634     11684     11687     11690     11635     11634     11684     11685
     11635     11634     11684     11686     11635     11634     11684     11687
     11636     11634     11684     11685     11636     11634     11684     11686
     11636     11634     11684     11687     11637     11640     11643     11644
     11637     11640     11643     11645     11637     11640     11643     11646
     11638     11637     11640     11641     11638     11637     11640     11642
     11638     11637     11640     11643     11639     11637     11640     11641
     11639     11637     11640     11642     11639     11637     11640     11643
     11640     11643     11646     11647     11640     11643     11646     11648
     11640     11643     11646     11649     11641     11640     11643     11644
     11641     11640     11643     11645     11641     11640     11643     11646
     11642     11640     11643     11644     11642     11640     11643     11645
     11642     11640     11643     11646     11643     11646     11649     11650
     11643     11646     11649     11651     11643     11646     11649     11652
     11644     11643     11646     11647     11644     11643     11646     11648
     11644     11643     11646     11649     11645     11643     11646     11647
     11645     11643     11646     11648     11645     11643     11646     11649
     11646     11649     11652     11653     11646     11649     11652     11654
     11646     11649     11652     11655     11647     11646     11649     11650
     11647     11646     11649     11651     11647     11646     11649     11652
     11648     11646     11649     11650     11648     11646     11649     11651
     11648     11646     11649     11652     11649     11652     11655     11656
     11649     11652     11655     11657     11650     11649     11652     11653
     11650     11649     11652     11654     11650     11649     11652     11655
     11651     11649     11652     11653     11651     11649     11652     11654
     11651     11649     11652     11655     11652     11655     11657     11658
     11652     11655     11657     11659     11653     11652     11655     11656
     11653     11652     11655     11657     11654     11652     11655     11656
     11654     11652     11655     11657     11655     11657     11659     11660
     11655     11657     11659     11661     11655     11657     11659     11662
     11656     11655     11657     11658     11656     11655     11657     11659
     11657     11659     11662     11663     11657     11659     11662     11664
     11657     11659     11662     11665     11658     11657     11659     11660
     11658     11657     11659     11661     11658     11657     11659     11662
     11659     11662     11665     11666     11659     11662     11665     11667
     11659     11662     11665     11668     11660     11659     11662     11663
     11660     11659     11662     11664     11660     11659     11662     11665
     11661     11659     11662     11663     11661     11659     11662     11664
     11661     11659     11662     11665     11662     11665     11668     11669
     11662     11665     11668     11670     11662     11665     11668     11671
     11663     11662     11665     11666     11663     11662     11665     11667
     11663     11662     11665     11668     11664     11662     11665     11666
     11664     11662     11665     11667     11664     11662     11665     11668
     11665     11668     11671     11672     11665     11668     11671     11673
     11665     11668     11671     11674     11666     11665     11668     11669
     11666     11665     11668     11670     11666     11665     11668     11671
     11667     11665     11668     11669     11667     11665     11668     11670
     11667     11665     11668     11671     11668     11671     11674     11675
     11668     11671     11674     11676     11668     11671     11674     11677
     11669     11668     11671     11672     11669     11668     11671     11673
     11669     11668     11671     11674     11670     11668     11671     11672
     11670     11668     11671     11673     11670     11668     11671     11674
     11671     11674     11677     11678     11671     11674     11677     11679
     11671     11674     11677     11680     11672     11671     11674     11675
     11672     11671     11674     11676     11672     11671     11674     11677
     11673     11671     11674     11675     11673     11671     11674     11676
     11673     11671     11674     11677     11674     11677     11680     11681
     11674     11677     11680     11682     11674     11677     11680     11683
     11675     11674     11677     11678     11675     11674     11677     11679
     11675     11674     11677     11680     11676     11674     11677     11678
     11676     11674     11677     11679     11676     11674     11677     11680
     11678     11677     11680     11681     11678     11677     11680     11682
     11678     11677     11680     11683     11679     11677     11680     11681
     11679     11677     11680     11682     11679     11677     11680     11683
     11684     11687     11690     11691     11684     11687     11690     11692
     11684     11687     11690     11693     11685     11684     11687     11688
     11685     11684     11687     11689     11685     11684     11687     11690
     11686     11684     11687     11688     11686     11684     11687     11689
     11686     11684     11687     11690     11687     11690     11693     11694
     11687     11690     11693     11695     11687     11690     11693     11696
     11688     11687     11690     11691     11688     11687     11690     11692
     11688     11687     11690     11693     11689     11687     11690     11691
     11689     11687     11690     11692     11689     11687     11690     11693
     11690     11693     11696     11697     11690     11693     11696     11698
     11690     11693     11696     11699     11691     11690     11693     11694
     11691     11690     11693     11695     11691     11690     11693     11696
     11692     11690     11693     11694     11692     11690     11693     11695
     11692     11690     11693     11696     11693     11696     11699     11700
     11693     11696     11699     11701     11693     11696     11699     11702
     11694     11693     11696     11697     11694     11693     11696     11698
     11694     11693     11696     11699     11695     11693     11696     11697
     11695     11693     11696     11698     11695     11693     11696     11699
     11696     11699     11702     11703     11696     11699     11702     11704
     11696     11699     11702     11705     11697     11696     11699     11700
     11697     11696     11699     11701     11697     11696     11699     11702
     11698     11696     11699     11700     11698     11696     11699     11701
     11698     11696     11699     11702     11699     11702     11705     11706
     11699     11702     11705     11707     11699     11702     11705     11708
     11700     11699     11702     11703     11700     11699     11702     11704
     11700     11699     11702     11705     11701     11699     11702     11703
     11701     11699     11702     11704     11701     11699     11702     11705
     11702     11705     11708     11709     11702     11705     11708     11710
     11702     11705     11708     11711     11703     11702     11705     11706
     11703     11702     11705     11707     11703     11702     11705     11708
     11704     11702     11705     11706     11704     11702     11705     11707
     11704     11702     11705     11708     11705     11708     11711     11712
     11705     11708     11711     11713     11705     11708     11711     11714
     11706     11705     11708     11709     11706     11705     11708     11710
     11706     11705     11708     11711     11707     11705     11708     11709
     11707     11705     11708     11710     11707     11705     11708     11711
     11708     11711     11714     11715     11708     11711     11714     11716
     11708     11711     11714     11717     11709     11708     11711     11712
     11709     11708     11711     11713     11709     11708     11711     11714
     11710     11708     11711     11712     11710     11708     11711     11713
     11710     11708     11711     11714     11711     11714     11717     11718
     11711     11714     11717     11719     11711     11714     11717     11720
     11712     11711     11714     11715     11712     11711     11714     11716
     11712     11711     11714     11717     11713     11711     11714     11715
     11713     11711     11714     11716     11713     11711     11714     11717
     11714     11717     11720     11721     11714     11717     11720     11722
     11714     11717     11720     11723     11715     11714     11717     11718
     11715     11714     11717     11719     11715     11714     11717     11720
     11716     11714     11717     11718     11716     11714     11717     11719
     11716     11714     11717     11720     11717     11720     11723     11724
     11717     11720     11723     11725     11717     11720     11723     11726
     11718     11717     11720     11721     11718     11717     11720     11722
     11718     11717     11720     11723     11719     11717     11720     11721
     11719     11717     11720     11722     11719     11717     11720     11723
     11721     11720     11723     11724     11721     11720     11723     11725
     11721     11720     11723     11726     11722     11720     11723     11724
     11722     11720     11723     11725     11722     11720     11723     11726
     11727     11728     11743     11744     11727     11728     11743     11745
     11727     11728     11743     11749     11728     11727     11731     11732
     11728     11727     11731     11733     11728     11727     11731     11734
     11728     11727     11735     11736     11728     11727     11735     11737
     11728     11727     11735     11738     11728     11727     11739     11740
     11728     11727     11739     11741     11728     11727     11739     11742
     11728     11743     11749     11746     11729     11728     11727     11731
     11729     11728     11727     11735     11729     11728     11727     11739
     11729     11728     11743     11744     11729     11728     11743     11745
     11729     11728     11743     11749     11730     11728     11727     11731
     11730     11728     11727     11735     11730     11728     11727     11739
     11730     11728     11743     11744     11730     11728     11743     11745
     11730     11728     11743     11749     11731     11727     11728     11743
     11731     11727     11735     11736     11731     11727     11735     11737
     11731     11727     11735     11738     11731     11727     11739     11740
     11731     11727     11739     11741     11731     11727     11739     11742
     11732     11731     11727     11735     11732     11731     11727     11739
     11733     11731     11727     11735     11733     11731     11727     11739
     11734     11731     11727     11735     11734     11731     11727     11739
     11735     11727     11728     11743     11735     11727     11739     11740
     11735     11727     11739     11741     11735     11727     11739     11742
     11736     11735     11727     11739     11737     11735     11727     11739
     11738     11735     11727     11739     11739     11727     11728     11743
     11743     11749     11746     11747     11743     11749     11746     11748
     11743     11749     11746     11750     11744     11743     11749     11746
     11745     11743     11749     11746     11746     11750     11751     11752
     11746     11750     11751     11753     11746     11750     11751     11754
     11747     11746     11750     11751     11748     11746     11750     11751
     11749     11746     11750     11751     11750     11751     11754     11755
     11750     11751     11754     11756     11750     11751     11754     11762
     11751     11754     11756     11757     11751     11754     11762     11763
     11751     11754     11762     11764     11751     11754     11762     11765
     11752     11751     11754     11755     11752     11751     11754     11756
     11752     11751     11754     11762     11753     11751     11754     11755
     11753     11751     11754     11756     11753     11751     11754     11762
     11754     11756     11757     11758     11754     11756     11757     11759
     11754     11762     11765     11766     11755     11754     11756     11757
     11755     11754     11762     11763     11755     11754     11762     11764
     11755     11754     11762     11765     11756     11754     11762     11763
     11756     11754     11762     11764     11756     11754     11762     11765
     11756     11757     11759     11760     11756     11757     11759     11761
     11756     11757     11759     11771     11757     11756     11754     11762
     11757     11759     11771     11772     11757     11759     11771     11773
     11757     11759     11771     11774     11758     11757     11759     11760
     11758     11757     11759     11761     11758     11757     11759     11771
     11759     11771     11774     11775     11759     11771     11774     11776
     11759     11771     11774     11777     11760     11759     11771     11772
     11760     11759     11771     11773     11760     11759     11771     11774
     11761     11759     11771     11772     11761     11759     11771     11773
     11761     11759     11771     11774     11762     11765     11766     11767
     11762     11765     11766     11768     11763     11762     11765     11766
     11764     11762     11765     11766     11765     11766     11768     11769
     11765     11766     11768     11770     11765     11766     11768     11818
     11766     11768     11818     11819     11766     11768     11818     11820
     11766     11768     11818     11821     11767     11766     11768     11769
     11767     11766     11768     11770     11767     11766     11768     11818
     11768     11818     11821     11822     11768     11818     11821     11823
     11768     11818     11821     11824     11769     11768     11818     11819
     11769     11768     11818     11820     11769     11768     11818     11821
     11770     11768     11818     11819     11770     11768     11818     11820
     11770     11768     11818     11821     11771     11774     11777     11778
     11771     11774     11777     11779     11771     11774     11777     11780
     11772     11771     11774     11775     11772     11771     11774     11776
     11772     11771     11774     11777     11773     11771     11774     11775
     11773     11771     11774     11776     11773     11771     11774     11777
     11774     11777     11780     11781     11774     11777     11780     11782
     11774     11777     11780     11783     11775     11774     11777     11778
     11775     11774     11777     11779     11775     11774     11777     11780
     11776     11774     11777     11778     11776     11774     11777     11779
     11776     11774     11777     11780     11777     11780     11783     11784
     11777     11780     11783     11785     11777     11780     11783     11786
     11778     11777     11780     11781     11778     11777     11780     11782
     11778     11777     11780     11783     11779     11777     11780     11781
     11779     11777     11780     11782     11779     11777     11780     11783
     11780     11783     11786     11787     11780     11783     11786     11788
     11780     11783     11786     11789     11781     11780     11783     11784
     11781     11780     11783     11785     11781     11780     11783     11786
     11782     11780     11783     11784     11782     11780     11783     11785
     11782     11780     11783     11786     11783     11786     11789     11790
     11783     11786     11789     11791     11784     11783     11786     11787
     11784     11783     11786     11788     11784     11783     11786     11789
     11785     11783     11786     11787     11785     11783     11786     11788
     11785     11783     11786     11789     11786     11789     11791     11792
     11786     11789     11791     11793     11787     11786     11789     11790
     11787     11786     11789     11791     11788     11786     11789     11790
     11788     11786     11789     11791     11789     11791     11793     11794
     11789     11791     11793     11795     11789     11791     11793     11796
     11790     11789     11791     11792     11790     11789     11791     11793
     11791     11793     11796     11797     11791     11793     11796     11798
     11791     11793     11796     11799     11792     11791     11793     11794
     11792     11791     11793     11795     11792     11791     11793     11796
     11793     11796     11799     11800     11793     11796     11799     11801
     11793     11796     11799     11802     11794     11793     11796     11797
     11794     11793     11796     11798     11794     11793     11796     11799
     11795     11793     11796     11797     11795     11793     11796     11798
     11795     11793     11796     11799     11796     11799     11802     11803
     11796     11799     11802     11804     11796     11799     11802     11805
     11797     11796     11799     11800     11797     11796     11799     11801
     11797     11796     11799     11802     11798     11796     11799     11800
     11798     11796     11799     11801     11798     11796     11799     11802
     11799     11802     11805     11806     11799     11802     11805     11807
     11799     11802     11805     11808     11800     11799     11802     11803
     11800     11799     11802     11804     11800     11799     11802     11805
     11801     11799     11802     11803     11801     11799     11802     11804
     11801     11799     11802     11805     11802     11805     11808     11809
     11802     11805     11808     11810     11802     11805     11808     11811
     11803     11802     11805     11806     11803     11802     11805     11807
     11803     11802     11805     11808     11804     11802     11805     11806
     11804     11802     11805     11807     11804     11802     11805     11808
     11805     11808     11811     11812     11805     11808     11811     11813
     11805     11808     11811     11814     11806     11805     11808     11809
     11806     11805     11808     11810     11806     11805     11808     11811
     11807     11805     11808     11809     11807     11805     11808     11810
     11807     11805     11808     11811     11808     11811     11814     11815
     11808     11811     11814     11816     11808     11811     11814     11817
     11809     11808     11811     11812     11809     11808     11811     11813
     11809     11808     11811     11814     11810     11808     11811     11812
     11810     11808     11811     11813     11810     11808     11811     11814
     11812     11811     11814     11815     11812     11811     11814     11816
     11812     11811     11814     11817     11813     11811     11814     11815
     11813     11811     11814     11816     11813     11811     11814     11817
     11818     11821     11824     11825     11818     11821     11824     11826
     11818     11821     11824     11827     11819     11818     11821     11822
     11819     11818     11821     11823     11819     11818     11821     11824
     11820     11818     11821     11822     11820     11818     11821     11823
     11820     11818     11821     11824     11821     11824     11827     11828
     11821     11824     11827     11829     11821     11824     11827     11830
     11822     11821     11824     11825     11822     11821     11824     11826
     11822     11821     11824     11827     11823     11821     11824     11825
     11823     11821     11824     11826     11823     11821     11824     11827
     11824     11827     11830     11831     11824     11827     11830     11832
     11824     11827     11830     11833     11825     11824     11827     11828
     11825     11824     11827     11829     11825     11824     11827     11830
     11826     11824     11827     11828     11826     11824     11827     11829
     11826     11824     11827     11830     11827     11830     11833     11834
     11827     11830     11833     11835     11827     11830     11833     11836
     11828     11827     11830     11831     11828     11827     11830     11832
     11828     11827     11830     11833     11829     11827     11830     11831
     11829     11827     11830     11832     11829     11827     11830     11833
     11830     11833     11836     11837     11830     11833     11836     11838
     11830     11833     11836     11839     11831     11830     11833     11834
     11831     11830     11833     11835     11831     11830     11833     11836
     11832     11830     11833     11834     11832     11830     11833     11835
     11832     11830     11833     11836     11833     11836     11839     11840
     11833     11836     11839     11841     11833     11836     11839     11842
     11834     11833     11836     11837     11834     11833     11836     11838
     11834     11833     11836     11839     11835     11833     11836     11837
     11835     11833     11836     11838     11835     11833     11836     11839
     11836     11839     11842     11843     11836     11839     11842     11844
     11836     11839     11842     11845     11837     11836     11839     11840
     11837     11836     11839     11841     11837     11836     11839     11842
     11838     11836     11839     11840     11838     11836     11839     11841
     11838     11836     11839     11842     11839     11842     11845     11846
     11839     11842     11845     11847     11839     11842     11845     11848
     11840     11839     11842     11843     11840     11839     11842     11844
     11840     11839     11842     11845     11841     11839     11842     11843
     11841     11839     11842     11844     11841     11839     11842     11845
     11842     11845     11848     11849     11842     11845     11848     11850
     11842     11845     11848     11851     11843     11842     11845     11846
     11843     11842     11845     11847     11843     11842     11845     11848
     11844     11842     11845     11846     11844     11842     11845     11847
     11844     11842     11845     11848     11845     11848     11851     11852
     11845     11848     11851     11853     11845     11848     11851     11854
     11846     11845     11848     11849     11846     11845     11848     11850
     11846     11845     11848     11851     11847     11845     11848     11849
     11847     11845     11848     11850     11847     11845     11848     11851
     11848     11851     11854     11855     11848     11851     11854     11856
     11848     11851     11854     11857     11849     11848     11851     11852
     11849     11848     11851     11853     11849     11848     11851     11854
     11850     11848     11851     11852     11850     11848     11851     11853
     11850     11848     11851     11854     11851     11854     11857     11858
     11851     11854     11857     11859     11851     11854     11857     11860
     11852     11851     11854     11855     11852     11851     11854     11856
     11852     11851     11854     11857     11853     11851     11854     11855
     11853     11851     11854     11856     11853     11851     11854     11857
     11855     11854     11857     11858     11855     11854     11857     11859
     11855     11854     11857     11860     11856     11854     11857     11858
     11856     11854     11857     11859     11856     11854     11857     11860
     11861     11862     11877     11878     11861     11862     11877     11879
     11861     11862     11877     11883     11862     11861     11865     11866
     11862     11861     11865     11867     11862     11861     11865     11868
     11862     11861     11869     11870     11862     11861     11869     11871
     11862     11861     11869     11872     11862     11861     11873     11874
     11862     11861     11873     11875     11862     11861     11873     11876
     11862     11877     11883     11880     11863     11862     11861     11865
     11863     11862     11861     11869     11863     11862     11861     11873
     11863     11862     11877     11878     11863     11862     11877     11879
     11863     11862     11877     11883     11864     11862     11861     11865
     11864     11862     11861     11869     11864     11862     11861     11873
     11864     11862     11877     11878     11864     11862     11877     11879
     11864     11862     11877     11883     11865     11861     11862     11877
     11865     11861     11869     11870     11865     11861     11869     11871
     11865     11861     11869     11872     11865     11861     11873     11874
     11865     11861     11873     11875     11865     11861     11873     11876
     11866     11865     11861     11869     11866     11865     11861     11873
     11867     11865     11861     11869     11867     11865     11861     11873
     11868     11865     11861     11869     11868     11865     11861     11873
     11869     11861     11862     11877     11869     11861     11873     11874
     11869     11861     11873     11875     11869     11861     11873     11876
     11870     11869     11861     11873     11871     11869     11861     11873
     11872     11869     11861     11873     11873     11861     11862     11877
     11877     11883     11880     11881     11877     11883     11880     11882
     11877     11883     11880     11884     11878     11877     11883     11880
     11879     11877     11883     11880     11880     11884     11885     11886
     11880     11884     11885     11887     11880     11884     11885     11888
     11881     11880     11884     11885     11882     11880     11884     11885
     11883     11880     11884     11885     11884     11885     11888     11889
     11884     11885     11888     11890     11884     11885     11888     11896
     11885     11888     11890     11891     11885     11888     11896     11897
     11885     11888     11896     11898     11885     11888     11896     11899
     11886     11885     11888     11889     11886     11885     11888     11890
     11886     11885     11888     11896     11887     11885     11888     11889
     11887     11885     11888     11890     11887     11885     11888     11896
     11888     11890     11891     11892     11888     11890     11891     11893
     11888     11896     11899     11900     11889     11888     11890     11891
     11889     11888     11896     11897     11889     11888     11896     11898
     11889     11888     11896     11899     11890     11888     11896     11897
     11890     11888     11896     11898     11890     11888     11896     11899
     11890     11891     11893     11894     11890     11891     11893     11895
     11890     11891     11893     11905     11891     11890     11888     11896
     11891     11893     11905     11906     11891     11893     11905     11907
     11891     11893     11905     11908     11892     11891     11893     11894
     11892     11891     11893     11895     11892     11891     11893     11905
     11893     11905     11908     11909     11893     11905     11908     11910
     11893     11905     11908     11911     11894     11893     11905     11906
     11894     11893     11905     11907     11894     11893     11905     11908
     11895     11893     11905     11906     11895     11893     11905     11907
     11895     11893     11905     11908     11896     11899     11900     11901
     11896     11899     11900     11902     11897     11896     11899     11900
     11898     11896     11899     11900     11899     11900     11902     11903
     11899     11900     11902     11904     11899     11900     11902     11952
     11900     11902     11952     11953     11900     11902     11952     11954
     11900     11902     11952     11955     11901     11900     11902     11903
     11901     11900     11902     11904     11901     11900     11902     11952
     11902     11952     11955     11956     11902     11952     11955     11957
     11902     11952     11955     11958     11903     11902     11952     11953
     11903     11902     11952     11954     11903     11902     11952     11955
     11904     11902     11952     11953     11904     11902     11952     11954
     11904     11902     11952     11955     11905     11908     11911     11912
     11905     11908     11911     11913     11905     11908     11911     11914
     11906     11905     11908     11909     11906     11905     11908     11910
     11906     11905     11908     11911     11907     11905     11908     11909
     11907     11905     11908     11910     11907     11905     11908     11911
     11908     11911     11914     11915     11908     11911     11914     11916
     11908     11911     11914     11917     11909     11908     11911     11912
     11909     11908     11911     11913     11909     11908     11911     11914
     11910     11908     11911     11912     11910     11908     11911     11913
     11910     11908     11911     11914     11911     11914     11917     11918
     11911     11914     11917     11919     11911     11914     11917     11920
     11912     11911     11914     11915     11912     11911     11914     11916
     11912     11911     11914     11917     11913     11911     11914     11915
     11913     11911     11914     11916     11913     11911     11914     11917
     11914     11917     11920     11921     11914     11917     11920     11922
     11914     11917     11920     11923     11915     11914     11917     11918
     11915     11914     11917     11919     11915     11914     11917     11920
     11916     11914     11917     11918     11916     11914     11917     11919
     11916     11914     11917     11920     11917     11920     11923     11924
     11917     11920     11923     11925     11918     11917     11920     11921
     11918     11917     11920     11922     11918     11917     11920     11923
     11919     11917     11920     11921     11919     11917     11920     11922
     11919     11917     11920     11923     11920     11923     11925     11926
     11920     11923     11925     11927     11921     11920     11923     11924
     11921     11920     11923     11925     11922     11920     11923     11924
     11922     11920     11923     11925     11923     11925     11927     11928
     11923     11925     11927     11929     11923     11925     11927     11930
     11924     11923     11925     11926     11924     11923     11925     11927
     11925     11927     11930     11931     11925     11927     11930     11932
     11925     11927     11930     11933     11926     11925     11927     11928
     11926     11925     11927     11929     11926     11925     11927     11930
     11927     11930     11933     11934     11927     11930     11933     11935
     11927     11930     11933     11936     11928     11927     11930     11931
     11928     11927     11930     11932     11928     11927     11930     11933
     11929     11927     11930     11931     11929     11927     11930     11932
     11929     11927     11930     11933     11930     11933     11936     11937
     11930     11933     11936     11938     11930     11933     11936     11939
     11931     11930     11933     11934     11931     11930     11933     11935
     11931     11930     11933     11936     11932     11930     11933     11934
     11932     11930     11933     11935     11932     11930     11933     11936
     11933     11936     11939     11940     11933     11936     11939     11941
     11933     11936     11939     11942     11934     11933     11936     11937
     11934     11933     11936     11938     11934     11933     11936     11939
     11935     11933     11936     11937     11935     11933     11936     11938
     11935     11933     11936     11939     11936     11939     11942     11943
     11936     11939     11942     11944     11936     11939     11942     11945
     11937     11936     11939     11940     11937     11936     11939     11941
     11937     11936     11939     11942     11938     11936     11939     11940
     11938     11936     11939     11941     11938     11936     11939     11942
     11939     11942     11945     11946     11939     11942     11945     11947
     11939     11942     11945     11948     11940     11939     11942     11943
     11940     11939     11942     11944     11940     11939     11942     11945
     11941     11939     11942     11943     11941     11939     11942     11944
     11941     11939     11942     11945     11942     11945     11948     11949
     11942     11945     11948     11950     11942     11945     11948     11951
     11943     11942     11945     11946     11943     11942     11945     11947
     11943     11942     11945     11948     11944     11942     11945     11946
     11944     11942     11945     11947     11944     11942     11945     11948
     11946     11945     11948     11949     11946     11945     11948     11950
     11946     11945     11948     11951     11947     11945     11948     11949
     11947     11945     11948     11950     11947     11945     11948     11951
     11952     11955     11958     11959     11952     11955     11958     11960
     11952     11955     11958     11961     11953     11952     11955     11956
     11953     11952     11955     11957     11953     11952     11955     11958
     11954     11952     11955     11956     11954     11952     11955     11957
     11954     11952     11955     11958     11955     11958     11961     11962
     11955     11958     11961     11963     11955     11958     11961     11964
     11956     11955     11958     11959     11956     11955     11958     11960
     11956     11955     11958     11961     11957     11955     11958     11959
     11957     11955     11958     11960     11957     11955     11958     11961
     11958     11961     11964     11965     11958     11961     11964     11966
     11958     11961     11964     11967     11959     11958     11961     11962
     11959     11958     11961     11963     11959     11958     11961     11964
     11960     11958     11961     11962     11960     11958     11961     11963
     11960     11958     11961     11964     11961     11964     11967     11968
     11961     11964     11967     11969     11961     11964     11967     11970
     11962     11961     11964     11965     11962     11961     11964     11966
     11962     11961     11964     11967     11963     11961     11964     11965
     11963     11961     11964     11966     11963     11961     11964     11967
     11964     11967     11970     11971     11964     11967     11970     11972
     11964     11967     11970     11973     11965     11964     11967     11968
     11965     11964     11967     11969     11965     11964     11967     11970
     11966     11964     11967     11968     11966     11964     11967     11969
     11966     11964     11967     11970     11967     11970     11973     11974
     11967     11970     11973     11975     11967     11970     11973     11976
     11968     11967     11970     11971     11968     11967     11970     11972
     11968     11967     11970     11973     11969     11967     11970     11971
     11969     11967     11970     11972     11969     11967     11970     11973
     11970     11973     11976     11977     11970     11973     11976     11978
     11970     11973     11976     11979     11971     11970     11973     11974
     11971     11970     11973     11975     11971     11970     11973     11976
     11972     11970     11973     11974     11972     11970     11973     11975
     11972     11970     11973     11976     11973     11976     11979     11980
     11973     11976     11979     11981     11973     11976     11979     11982
     11974     11973     11976     11977     11974     11973     11976     11978
     11974     11973     11976     11979     11975     11973     11976     11977
     11975     11973     11976     11978     11975     11973     11976     11979
     11976     11979     11982     11983     11976     11979     11982     11984
     11976     11979     11982     11985     11977     11976     11979     11980
     11977     11976     11979     11981     11977     11976     11979     11982
     11978     11976     11979     11980     11978     11976     11979     11981
     11978     11976     11979     11982     11979     11982     11985     11986
     11979     11982     11985     11987     11979     11982     11985     11988
     11980     11979     11982     11983     11980     11979     11982     11984
     11980     11979     11982     11985     11981     11979     11982     11983
     11981     11979     11982     11984     11981     11979     11982     11985
     11982     11985     11988     11989     11982     11985     11988     11990
     11982     11985     11988     11991     11983     11982     11985     11986
     11983     11982     11985     11987     11983     11982     11985     11988
     11984     11982     11985     11986     11984     11982     11985     11987
     11984     11982     11985     11988     11985     11988     11991     11992
     11985     11988     11991     11993     11985     11988     11991     11994
     11986     11985     11988     11989     11986     11985     11988     11990
     11986     11985     11988     11991     11987     11985     11988     11989
     11987     11985     11988     11990     11987     11985     11988     11991
     11989     11988     11991     11992     11989     11988     11991     11993
     11989     11988     11991     11994     11990     11988     11991     11992
     11990     11988     11991     11993     11990     11988     11991     11994
     11995     11996     12011     12012     11995     11996     12011     12013
     11995     11996     12011     12017     11996     11995     11999     12000
     11996     11995     11999     12001     11996     11995     11999     12002
     11996     11995     12003     12004     11996     11995     12003     12005
     11996     11995     12003     12006     11996     11995     12007     12008
     11996     11995     12007     12009     11996     11995     12007     12010
     11996     12011     12017     12014     11997     11996     11995     11999
     11997     11996     11995     12003     11997     11996     11995     12007
     11997     11996     12011     12012     11997     11996     12011     12013
     11997     11996     12011     12017     11998     11996     11995     11999
     11998     11996     11995     12003     11998     11996     11995     12007
     11998     11996     12011     12012     11998     11996     12011     12013
     11998     11996     12011     12017     11999     11995     11996     12011
     11999     11995     12003     12004     11999     11995     12003     12005
     11999     11995     12003     12006     11999     11995     12007     12008
     11999     11995     12007     12009     11999     11995     12007     12010
     12000     11999     11995     12003     12000     11999     11995     12007
     12001     11999     11995     12003     12001     11999     11995     12007
     12002     11999     11995     12003     12002     11999     11995     12007
     12003     11995     11996     12011     12003     11995     12007     12008
     12003     11995     12007     12009     12003     11995     12007     12010
     12004     12003     11995     12007     12005     12003     11995     12007
     12006     12003     11995     12007     12007     11995     11996     12011
     12011     12017     12014     12015     12011     12017     12014     12016
     12011     12017     12014     12018     12012     12011     12017     12014
     12013     12011     12017     12014     12014     12018     12019     12020
     12014     12018     12019     12021     12014     12018     12019     12022
     12015     12014     12018     12019     12016     12014     12018     12019
     12017     12014     12018     12019     12018     12019     12022     12023
     12018     12019     12022     12024     12018     12019     12022     12030
     12019     12022     12024     12025     12019     12022     12030     12031
     12019     12022     12030     12032     12019     12022     12030     12033
     12020     12019     12022     12023     12020     12019     12022     12024
     12020     12019     12022     12030     12021     12019     12022     12023
     12021     12019     12022     12024     12021     12019     12022     12030
     12022     12024     12025     12026     12022     12024     12025     12027
     12022     12030     12033     12034     12023     12022     12024     12025
     12023     12022     12030     12031     12023     12022     12030     12032
     12023     12022     12030     12033     12024     12022     12030     12031
     12024     12022     12030     12032     12024     12022     12030     12033
     12024     12025     12027     12028     12024     12025     12027     12029
     12024     12025     12027     12039     12025     12024     12022     12030
     12025     12027     12039     12040     12025     12027     12039     12041
     12025     12027     12039     12042     12026     12025     12027     12028
     12026     12025     12027     12029     12026     12025     12027     12039
     12027     12039     12042     12043     12027     12039     12042     12044
     12027     12039     12042     12045     12028     12027     12039     12040
     12028     12027     12039     12041     12028     12027     12039     12042
     12029     12027     12039     12040     12029     12027     12039     12041
     12029     12027     12039     12042     12030     12033     12034     12035
     12030     12033     12034     12036     12031     12030     12033     12034
     12032     12030     12033     12034     12033     12034     12036     12037
     12033     12034     12036     12038     12033     12034     12036     12086
     12034     12036     12086     12087     12034     12036     12086     12088
     12034     12036     12086     12089     12035     12034     12036     12037
     12035     12034     12036     12038     12035     12034     12036     12086
     12036     12086     12089     12090     12036     12086     12089     12091
     12036     12086     12089     12092     12037     12036     12086     12087
     12037     12036     12086     12088     12037     12036     12086     12089
     12038     12036     12086     12087     12038     12036     12086     12088
     12038     12036     12086     12089     12039     12042     12045     12046
     12039     12042     12045     12047     12039     12042     12045     12048
     12040     12039     12042     12043     12040     12039     12042     12044
     12040     12039     12042     12045     12041     12039     12042     12043
     12041     12039     12042     12044     12041     12039     12042     12045
     12042     12045     12048     12049     12042     12045     12048     12050
     12042     12045     12048     12051     12043     12042     12045     12046
     12043     12042     12045     12047     12043     12042     12045     12048
     12044     12042     12045     12046     12044     12042     12045     12047
     12044     12042     12045     12048     12045     12048     12051     12052
     12045     12048     12051     12053     12045     12048     12051     12054
     12046     12045     12048     12049     12046     12045     12048     12050
     12046     12045     12048     12051     12047     12045     12048     12049
     12047     12045     12048     12050     12047     12045     12048     12051
     12048     12051     12054     12055     12048     12051     12054     12056
     12048     12051     12054     12057     12049     12048     12051     12052
     12049     12048     12051     12053     12049     12048     12051     12054
     12050     12048     12051     12052     12050     12048     12051     12053
     12050     12048     12051     12054     12051     12054     12057     12058
     12051     12054     12057     12059     12052     12051     12054     12055
     12052     12051     12054     12056     12052     12051     12054     12057
     12053     12051     12054     12055     12053     12051     12054     12056
     12053     12051     12054     12057     12054     12057     12059     12060
     12054     12057     12059     12061     12055     12054     12057     12058
     12055     12054     12057     12059     12056     12054     12057     12058
     12056     12054     12057     12059     12057     12059     12061     12062
     12057     12059     12061     12063     12057     12059     12061     12064
     12058     12057     12059     12060     12058     12057     12059     12061
     12059     12061     12064     12065     12059     12061     12064     12066
     12059     12061     12064     12067     12060     12059     12061     12062
     12060     12059     12061     12063     12060     12059     12061     12064
     12061     12064     12067     12068     12061     12064     12067     12069
     12061     12064     12067     12070     12062     12061     12064     12065
     12062     12061     12064     12066     12062     12061     12064     12067
     12063     12061     12064     12065     12063     12061     12064     12066
     12063     12061     12064     12067     12064     12067     12070     12071
     12064     12067     12070     12072     12064     12067     12070     12073
     12065     12064     12067     12068     12065     12064     12067     12069
     12065     12064     12067     12070     12066     12064     12067     12068
     12066     12064     12067     12069     12066     12064     12067     12070
     12067     12070     12073     12074     12067     12070     12073     12075
     12067     12070     12073     12076     12068     12067     12070     12071
     12068     12067     12070     12072     12068     12067     12070     12073
     12069     12067     12070     12071     12069     12067     12070     12072
     12069     12067     12070     12073     12070     12073     12076     12077
     12070     12073     12076     12078     12070     12073     12076     12079
     12071     12070     12073     12074     12071     12070     12073     12075
     12071     12070     12073     12076     12072     12070     12073     12074
     12072     12070     12073     12075     12072     12070     12073     12076
     12073     12076     12079     12080     12073     12076     12079     12081
     12073     12076     12079     12082     12074     12073     12076     12077
     12074     12073     12076     12078     12074     12073     12076     12079
     12075     12073     12076     12077     12075     12073     12076     12078
     12075     12073     12076     12079     12076     12079     12082     12083
     12076     12079     12082     12084     12076     12079     12082     12085
     12077     12076     12079     12080     12077     12076     12079     12081
     12077     12076     12079     12082     12078     12076     12079     12080
     12078     12076     12079     12081     12078     12076     12079     12082
     12080     12079     12082     12083     12080     12079     12082     12084
     12080     12079     12082     12085     12081     12079     12082     12083
     12081     12079     12082     12084     12081     12079     12082     12085
     12086     12089     12092     12093     12086     12089     12092     12094
     12086     12089     12092     12095     12087     12086     12089     12090
     12087     12086     12089     12091     12087     12086     12089     12092
     12088     12086     12089     12090     12088     12086     12089     12091
     12088     12086     12089     12092     12089     12092     12095     12096
     12089     12092     12095     12097     12089     12092     12095     12098
     12090     12089     12092     12093     12090     12089     12092     12094
     12090     12089     12092     12095     12091     12089     12092     12093
     12091     12089     12092     12094     12091     12089     12092     12095
     12092     12095     12098     12099     12092     12095     12098     12100
     12092     12095     12098     12101     12093     12092     12095     12096
     12093     12092     12095     12097     12093     12092     12095     12098
     12094     12092     12095     12096     12094     12092     12095     12097
     12094     12092     12095     12098     12095     12098     12101     12102
     12095     12098     12101     12103     12095     12098     12101     12104
     12096     12095     12098     12099     12096     12095     12098     12100
     12096     12095     12098     12101     12097     12095     12098     12099
     12097     12095     12098     12100     12097     12095     12098     12101
     12098     12101     12104     12105     12098     12101     12104     12106
     12098     12101     12104     12107     12099     12098     12101     12102
     12099     12098     12101     12103     12099     12098     12101     12104
     12100     12098     12101     12102     12100     12098     12101     12103
     12100     12098     12101     12104     12101     12104     12107     12108
     12101     12104     12107     12109     12101     12104     12107     12110
     12102     12101     12104     12105     12102     12101     12104     12106
     12102     12101     12104     12107     12103     12101     12104     12105
     12103     12101     12104     12106     12103     12101     12104     12107
     12104     12107     12110     12111     12104     12107     12110     12112
     12104     12107     12110     12113     12105     12104     12107     12108
     12105     12104     12107     12109     12105     12104     12107     12110
     12106     12104     12107     12108     12106     12104     12107     12109
     12106     12104     12107     12110     12107     12110     12113     12114
     12107     12110     12113     12115     12107     12110     12113     12116
     12108     12107     12110     12111     12108     12107     12110     12112
     12108     12107     12110     12113     12109     12107     12110     12111
     12109     12107     12110     12112     12109     12107     12110     12113
     12110     12113     12116     12117     12110     12113     12116     12118
     12110     12113     12116     12119     12111     12110     12113     12114
     12111     12110     12113     12115     12111     12110     12113     12116
     12112     12110     12113     12114     12112     12110     12113     12115
     12112     12110     12113     12116     12113     12116     12119     12120
     12113     12116     12119     12121     12113     12116     12119     12122
     12114     12113     12116     12117     12114     12113     12116     12118
     12114     12113     12116     12119     12115     12113     12116     12117
     12115     12113     12116     12118     12115     12113     12116     12119
     12116     12119     12122     12123     12116     12119     12122     12124
     12116     12119     12122     12125     12117     12116     12119     12120
     12117     12116     12119     12121     12117     12116     12119     12122
     12118     12116     12119     12120     12118     12116     12119     12121
     12118     12116     12119     12122     12119     12122     12125     12126
     12119     12122     12125     12127     12119     12122     12125     12128
     12120     12119     12122     12123     12120     12119     12122     12124
     12120     12119     12122     12125     12121     12119     12122     12123
     12121     12119     12122     12124     12121     12119     12122     12125
     12123     12122     12125     12126     12123     12122     12125     12127
     12123     12122     12125     12128     12124     12122     12125     12126
     12124     12122     12125     12127     12124     12122     12125     12128
     12129     12130     12145     12146     12129     12130     12145     12147
     12129     12130     12145     12151     12130     12129     12133     12134
     12130     12129     12133     12135     12130     12129     12133     12136
     12130     12129     12137     12138     12130     12129     12137     12139
     12130     12129     12137     12140     12130     12129     12141     12142
     12130     12129     12141     12143     12130     12129     12141     12144
     12130     12145     12151     12148     12131     12130     12129     12133
     12131     12130     12129     12137     12131     12130     12129     12141
     12131     12130     12145     12146     12131     12130     12145     12147
     12131     12130     12145     12151     12132     12130     12129     12133
     12132     12130     12129     12137     12132     12130     12129     12141
     12132     12130     12145     12146     12132     12130     12145     12147
     12132     12130     12145     12151     12133     12129     12130     12145
     12133     12129     12137     12138     12133     12129     12137     12139
     12133     12129     12137     12140     12133     12129     12141     12142
     12133     12129     12141     12143     12133     12129     12141     12144
     12134     12133     12129     12137     12134     12133     12129     12141
     12135     12133     12129     12137     12135     12133     12129     12141
     12136     12133     12129     12137     12136     12133     12129     12141
     12137     12129     12130     12145     12137     12129     12141     12142
     12137     12129     12141     12143     12137     12129     12141     12144
     12138     12137     12129     12141     12139     12137     12129     12141
     12140     12137     12129     12141     12141     12129     12130     12145
     12145     12151     12148     12149     12145     12151     12148     12150
     12145     12151     12148     12152     12146     12145     12151     12148
     12147     12145     12151     12148     12148     12152     12153     12154
     12148     12152     12153     12155     12148     12152     12153     12156
     12149     12148     12152     12153     12150     12148     12152     12153
     12151     12148     12152     12153     12152     12153     12156     12157
     12152     12153     12156     12158     12152     12153     12156     12164
     12153     12156     12158     12159     12153     12156     12164     12165
     12153     12156     12164     12166     12153     12156     12164     12167
     12154     12153     12156     12157     12154     12153     12156     12158
     12154     12153     12156     12164     12155     12153     12156     12157
     12155     12153     12156     12158     12155     12153     12156     12164
     12156     12158     12159     12160     12156     12158     12159     12161
     12156     12164     12167     12168     12157     12156     12158     12159
     12157     12156     12164     12165     12157     12156     12164     12166
     12157     12156     12164     12167     12158     12156     12164     12165
     12158     12156     12164     12166     12158     12156     12164     12167
     12158     12159     12161     12162     12158     12159     12161     12163
     12158     12159     12161     12173     12159     12158     12156     12164
     12159     12161     12173     12174     12159     12161     12173     12175
     12159     12161     12173     12176     12160     12159     12161     12162
     12160     12159     12161     12163     12160     12159     12161     12173
     12161     12173     12176     12177     12161     12173     12176     12178
     12161     12173     12176     12179     12162     12161     12173     12174
     12162     12161     12173     12175     12162     12161     12173     12176
     12163     12161     12173     12174     12163     12161     12173     12175
     12163     12161     12173     12176     12164     12167     12168     12169
     12164     12167     12168     12170     12165     12164     12167     12168
     12166     12164     12167     12168     12167     12168     12170     12171
     12167     12168     12170     12172     12167     12168     12170     12220
     12168     12170     12220     12221     12168     12170     12220     12222
     12168     12170     12220     12223     12169     12168     12170     12171
     12169     12168     12170     12172     12169     12168     12170     12220
     12170     12220     12223     12224     12170     12220     12223     12225
     12170     12220     12223     12226     12171     12170     12220     12221
     12171     12170     12220     12222     12171     12170     12220     12223
     12172     12170     12220     12221     12172     12170     12220     12222
     12172     12170     12220     12223     12173     12176     12179     12180
     12173     12176     12179     12181     12173     12176     12179     12182
     12174     12173     12176     12177     12174     12173     12176     12178
     12174     12173     12176     12179     12175     12173     12176     12177
     12175     12173     12176     12178     12175     12173     12176     12179
     12176     12179     12182     12183     12176     12179     12182     12184
     12176     12179     12182     12185     12177     12176     12179     12180
     12177     12176     12179     12181     12177     12176     12179     12182
     12178     12176     12179     12180     12178     12176     12179     12181
     12178     12176     12179     12182     12179     12182     12185     12186
     12179     12182     12185     12187     12179     12182     12185     12188
     12180     12179     12182     12183     12180     12179     12182     12184
     12180     12179     12182     12185     12181     12179     12182     12183
     12181     12179     12182     12184     12181     12179     12182     12185
     12182     12185     12188     12189     12182     12185     12188     12190
     12182     12185     12188     12191     12183     12182     12185     12186
     12183     12182     12185     12187     12183     12182     12185     12188
     12184     12182     12185     12186     12184     12182     12185     12187
     12184     12182     12185     12188     12185     12188     12191     12192
     12185     12188     12191     12193     12186     12185     12188     12189
     12186     12185     12188     12190     12186     12185     12188     12191
     12187     12185     12188     12189     12187     12185     12188     12190
     12187     12185     12188     12191     12188     12191     12193     12194
     12188     12191     12193     12195     12189     12188     12191     12192
     12189     12188     12191     12193     12190     12188     12191     12192
     12190     12188     12191     12193     12191     12193     12195     12196
     12191     12193     12195     12197     12191     12193     12195     12198
     12192     12191     12193     12194     12192     12191     12193     12195
     12193     12195     12198     12199     12193     12195     12198     12200
     12193     12195     12198     12201     12194     12193     12195     12196
     12194     12193     12195     12197     12194     12193     12195     12198
     12195     12198     12201     12202     12195     12198     12201     12203
     12195     12198     12201     12204     12196     12195     12198     12199
     12196     12195     12198     12200     12196     12195     12198     12201
     12197     12195     12198     12199     12197     12195     12198     12200
     12197     12195     12198     12201     12198     12201     12204     12205
     12198     12201     12204     12206     12198     12201     12204     12207
     12199     12198     12201     12202     12199     12198     12201     12203
     12199     12198     12201     12204     12200     12198     12201     12202
     12200     12198     12201     12203     12200     12198     12201     12204
     12201     12204     12207     12208     12201     12204     12207     12209
     12201     12204     12207     12210     12202     12201     12204     12205
     12202     12201     12204     12206     12202     12201     12204     12207
     12203     12201     12204     12205     12203     12201     12204     12206
     12203     12201     12204     12207     12204     12207     12210     12211
     12204     12207     12210     12212     12204     12207     12210     12213
     12205     12204     12207     12208     12205     12204     12207     12209
     12205     12204     12207     12210     12206     12204     12207     12208
     12206     12204     12207     12209     12206     12204     12207     12210
     12207     12210     12213     12214     12207     12210     12213     12215
     12207     12210     12213     12216     12208     12207     12210     12211
     12208     12207     12210     12212     12208     12207     12210     12213
     12209     12207     12210     12211     12209     12207     12210     12212
     12209     12207     12210     12213     12210     12213     12216     12217
     12210     12213     12216     12218     12210     12213     12216     12219
     12211     12210     12213     12214     12211     12210     12213     12215
     12211     12210     12213     12216     12212     12210     12213     12214
     12212     12210     12213     12215     12212     12210     12213     12216
     12214     12213     12216     12217     12214     12213     12216     12218
     12214     12213     12216     12219     12215     12213     12216     12217
     12215     12213     12216     12218     12215     12213     12216     12219
     12220     12223     12226     12227     12220     12223     12226     12228
     12220     12223     12226     12229     12221     12220     12223     12224
     12221     12220     12223     12225     12221     12220     12223     12226
     12222     12220     12223     12224     12222     12220     12223     12225
     12222     12220     12223     12226     12223     12226     12229     12230
     12223     12226     12229     12231     12223     12226     12229     12232
     12224     12223     12226     12227     12224     12223     12226     12228
     12224     12223     12226     12229     12225     12223     12226     12227
     12225     12223     12226     12228     12225     12223     12226     12229
     12226     12229     12232     12233     12226     12229     12232     12234
     12226     12229     12232     12235     12227     12226     12229     12230
     12227     12226     12229     12231     12227     12226     12229     12232
     12228     12226     12229     12230     12228     12226     12229     12231
     12228     12226     12229     12232     12229     12232     12235     12236
     12229     12232     12235     12237     12229     12232     12235     12238
     12230     12229     12232     12233     12230     12229     12232     12234
     12230     12229     12232     12235     12231     12229     12232     12233
     12231     12229     12232     12234     12231     12229     12232     12235
     12232     12235     12238     12239     12232     12235     12238     12240
     12232     12235     12238     12241     12233     12232     12235     12236
     12233     12232     12235     12237     12233     12232     12235     12238
     12234     12232     12235     12236     12234     12232     12235     12237
     12234     12232     12235     12238     12235     12238     12241     12242
     12235     12238     12241     12243     12235     12238     12241     12244
     12236     12235     12238     12239     12236     12235     12238     12240
     12236     12235     12238     12241     12237     12235     12238     12239
     12237     12235     12238     12240     12237     12235     12238     12241
     12238     12241     12244     12245     12238     12241     12244     12246
     12238     12241     12244     12247     12239     12238     12241     12242
     12239     12238     12241     12243     12239     12238     12241     12244
     12240     12238     12241     12242     12240     12238     12241     12243
     12240     12238     12241     12244     12241     12244     12247     12248
     12241     12244     12247     12249     12241     12244     12247     12250
     12242     12241     12244     12245     12242     12241     12244     12246
     12242     12241     12244     12247     12243     12241     12244     12245
     12243     12241     12244     12246     12243     12241     12244     12247
     12244     12247     12250     12251     12244     12247     12250     12252
     12244     12247     12250     12253     12245     12244     12247     12248
     12245     12244     12247     12249     12245     12244     12247     12250
     12246     12244     12247     12248     12246     12244     12247     12249
     12246     12244     12247     12250     12247     12250     12253     12254
     12247     12250     12253     12255     12247     12250     12253     12256
     12248     12247     12250     12251     12248     12247     12250     12252
     12248     12247     12250     12253     12249     12247     12250     12251
     12249     12247     12250     12252     12249     12247     12250     12253
     12250     12253     12256     12257     12250     12253     12256     12258
     12250     12253     12256     12259     12251     12250     12253     12254
     12251     12250     12253     12255     12251     12250     12253     12256
     12252     12250     12253     12254     12252     12250     12253     12255
     12252     12250     12253     12256     12253     12256     12259     12260
     12253     12256     12259     12261     12253     12256     12259     12262
     12254     12253     12256     12257     12254     12253     12256     12258
     12254     12253     12256     12259     12255     12253     12256     12257
     12255     12253     12256     12258     12255     12253     12256     12259
     12257     12256     12259     12260     12257     12256     12259     12261
     12257     12256     12259     12262     12258     12256     12259     12260
     12258     12256     12259     12261     12258     12256     12259     12262
     12263     12264     12279     12280     12263     12264     12279     12281
     12263     12264     12279     12285     12264     12263     12267     12268
     12264     12263     12267     12269     12264     12263     12267     12270
     12264     12263     12271     12272     12264     12263     12271     12273
     12264     12263     12271     12274     12264     12263     12275     12276
     12264     12263     12275     12277     12264     12263     12275     12278
     12264     12279     12285     12282     12265     12264     12263     12267
     12265     12264     12263     12271     12265     12264     12263     12275
     12265     12264     12279     12280     12265     12264     12279     12281
     12265     12264     12279     12285     12266     12264     12263     12267
     12266     12264     12263     12271     12266     12264     12263     12275
     12266     12264     12279     12280     12266     12264     12279     12281
     12266     12264     12279     12285     12267     12263     12264     12279
     12267     12263     12271     12272     12267     12263     12271     12273
     12267     12263     12271     12274     12267     12263     12275     12276
     12267     12263     12275     12277     12267     12263     12275     12278
     12268     12267     12263     12271     12268     12267     12263     12275
     12269     12267     12263     12271     12269     12267     12263     12275
     12270     12267     12263     12271     12270     12267     12263     12275
     12271     12263     12264     12279     12271     12263     12275     12276
     12271     12263     12275     12277     12271     12263     12275     12278
     12272     12271     12263     12275     12273     12271     12263     12275
     12274     12271     12263     12275     12275     12263     12264     12279
     12279     12285     12282     12283     12279     12285     12282     12284
     12279     12285     12282     12286     12280     12279     12285     12282
     12281     12279     12285     12282     12282     12286     12287     12288
     12282     12286     12287     12289     12282     12286     12287     12290
     12283     12282     12286     12287     12284     12282     12286     12287
     12285     12282     12286     12287     12286     12287     12290     12291
     12286     12287     12290     12292     12286     12287     12290     12298
     12287     12290     12292     12293     12287     12290     12298     12299
     12287     12290     12298     12300     12287     12290     12298     12301
     12288     12287     12290     12291     12288     12287     12290     12292
     12288     12287     12290     12298     12289     12287     12290     12291
     12289     12287     12290     12292     12289     12287     12290     12298
     12290     12292     12293     12294     12290     12292     12293     12295
     12290     12298     12301     12302     12291     12290     12292     12293
     12291     12290     12298     12299     12291     12290     12298     12300
     12291     12290     12298     12301     12292     12290     12298     12299
     12292     12290     12298     12300     12292     12290     12298     12301
     12292     12293     12295     12296     12292     12293     12295     12297
     12292     12293     12295     12307     12293     12292     12290     12298
     12293     12295     12307     12308     12293     12295     12307     12309
     12293     12295     12307     12310     12294     12293     12295     12296
     12294     12293     12295     12297     12294     12293     12295     12307
     12295     12307     12310     12311     12295     12307     12310     12312
     12295     12307     12310     12313     12296     12295     12307     12308
     12296     12295     12307     12309     12296     12295     12307     12310
     12297     12295     12307     12308     12297     12295     12307     12309
     12297     12295     12307     12310     12298     12301     12302     12303
     12298     12301     12302     12304     12299     12298     12301     12302
     12300     12298     12301     12302     12301     12302     12304     12305
     12301     12302     12304     12306     12301     12302     12304     12354
     12302     12304     12354     12355     12302     12304     12354     12356
     12302     12304     12354     12357     12303     12302     12304     12305
     12303     12302     12304     12306     12303     12302     12304     12354
     12304     12354     12357     12358     12304     12354     12357     12359
     12304     12354     12357     12360     12305     12304     12354     12355
     12305     12304     12354     12356     12305     12304     12354     12357
     12306     12304     12354     12355     12306     12304     12354     12356
     12306     12304     12354     12357     12307     12310     12313     12314
     12307     12310     12313     12315     12307     12310     12313     12316
     12308     12307     12310     12311     12308     12307     12310     12312
     12308     12307     12310     12313     12309     12307     12310     12311
     12309     12307     12310     12312     12309     12307     12310     12313
     12310     12313     12316     12317     12310     12313     12316     12318
     12310     12313     12316     12319     12311     12310     12313     12314
     12311     12310     12313     12315     12311     12310     12313     12316
     12312     12310     12313     12314     12312     12310     12313     12315
     12312     12310     12313     12316     12313     12316     12319     12320
     12313     12316     12319     12321     12313     12316     12319     12322
     12314     12313     12316     12317     12314     12313     12316     12318
     12314     12313     12316     12319     12315     12313     12316     12317
     12315     12313     12316     12318     12315     12313     12316     12319
     12316     12319     12322     12323     12316     12319     12322     12324
     12316     12319     12322     12325     12317     12316     12319     12320
     12317     12316     12319     12321     12317     12316     12319     12322
     12318     12316     12319     12320     12318     12316     12319     12321
     12318     12316     12319     12322     12319     12322     12325     12326
     12319     12322     12325     12327     12320     12319     12322     12323
     12320     12319     12322     12324     12320     12319     12322     12325
     12321     12319     12322     12323     12321     12319     12322     12324
     12321     12319     12322     12325     12322     12325     12327     12328
     12322     12325     12327     12329     12323     12322     12325     12326
     12323     12322     12325     12327     12324     12322     12325     12326
     12324     12322     12325     12327     12325     12327     12329     12330
     12325     12327     12329     12331     12325     12327     12329     12332
     12326     12325     12327     12328     12326     12325     12327     12329
     12327     12329     12332     12333     12327     12329     12332     12334
     12327     12329     12332     12335     12328     12327     12329     12330
     12328     12327     12329     12331     12328     12327     12329     12332
     12329     12332     12335     12336     12329     12332     12335     12337
     12329     12332     12335     12338     12330     12329     12332     12333
     12330     12329     12332     12334     12330     12329     12332     12335
     12331     12329     12332     12333     12331     12329     12332     12334
     12331     12329     12332     12335     12332     12335     12338     12339
     12332     12335     12338     12340     12332     12335     12338     12341
     12333     12332     12335     12336     12333     12332     12335     12337
     12333     12332     12335     12338     12334     12332     12335     12336
     12334     12332     12335     12337     12334     12332     12335     12338
     12335     12338     12341     12342     12335     12338     12341     12343
     12335     12338     12341     12344     12336     12335     12338     12339
     12336     12335     12338     12340     12336     12335     12338     12341
     12337     12335     12338     12339     12337     12335     12338     12340
     12337     12335     12338     12341     12338     12341     12344     12345
     12338     12341     12344     12346     12338     12341     12344     12347
     12339     12338     12341     12342     12339     12338     12341     12343
     12339     12338     12341     12344     12340     12338     12341     12342
     12340     12338     12341     12343     12340     12338     12341     12344
     12341     12344     12347     12348     12341     12344     12347     12349
     12341     12344     12347     12350     12342     12341     12344     12345
     12342     12341     12344     12346     12342     12341     12344     12347
     12343     12341     12344     12345     12343     12341     12344     12346
     12343     12341     12344     12347     12344     12347     12350     12351
     12344     12347     12350     12352     12344     12347     12350     12353
     12345     12344     12347     12348     12345     12344     12347     12349
     12345     12344     12347     12350     12346     12344     12347     12348
     12346     12344     12347     12349     12346     12344     12347     12350
     12348     12347     12350     12351     12348     12347     12350     12352
     12348     12347     12350     12353     12349     12347     12350     12351
     12349     12347     12350     12352     12349     12347     12350     12353
     12354     12357     12360     12361     12354     12357     12360     12362
     12354     12357     12360     12363     12355     12354     12357     12358
     12355     12354     12357     12359     12355     12354     12357     12360
     12356     12354     12357     12358     12356     12354     12357     12359
     12356     12354     12357     12360     12357     12360     12363     12364
     12357     12360     12363     12365     12357     12360     12363     12366
     12358     12357     12360     12361     12358     12357     12360     12362
     12358     12357     12360     12363     12359     12357     12360     12361
     12359     12357     12360     12362     12359     12357     12360     12363
     12360     12363     12366     12367     12360     12363     12366     12368
     12360     12363     12366     12369     12361     12360     12363     12364
     12361     12360     12363     12365     12361     12360     12363     12366
     12362     12360     12363     12364     12362     12360     12363     12365
     12362     12360     12363     12366     12363     12366     12369     12370
     12363     12366     12369     12371     12363     12366     12369     12372
     12364     12363     12366     12367     12364     12363     12366     12368
     12364     12363     12366     12369     12365     12363     12366     12367
     12365     12363     12366     12368     12365     12363     12366     12369
     12366     12369     12372     12373     12366     12369     12372     12374
     12366     12369     12372     12375     12367     12366     12369     12370
     12367     12366     12369     12371     12367     12366     12369     12372
     12368     12366     12369     12370     12368     12366     12369     12371
     12368     12366     12369     12372     12369     12372     12375     12376
     12369     12372     12375     12377     12369     12372     12375     12378
     12370     12369     12372     12373     12370     12369     12372     12374
     12370     12369     12372     12375     12371     12369     12372     12373
     12371     12369     12372     12374     12371     12369     12372     12375
     12372     12375     12378     12379     12372     12375     12378     12380
     12372     12375     12378     12381     12373     12372     12375     12376
     12373     12372     12375     12377     12373     12372     12375     12378
     12374     12372     12375     12376     12374     12372     12375     12377
     12374     12372     12375     12378     12375     12378     12381     12382
     12375     12378     12381     12383     12375     12378     12381     12384
     12376     12375     12378     12379     12376     12375     12378     12380
     12376     12375     12378     12381     12377     12375     12378     12379
     12377     12375     12378     12380     12377     12375     12378     12381
     12378     12381     12384     12385     12378     12381     12384     12386
     12378     12381     12384     12387     12379     12378     12381     12382
     12379     12378     12381     12383     12379     12378     12381     12384
     12380     12378     12381     12382     12380     12378     12381     12383
     12380     12378     12381     12384     12381     12384     12387     12388
     12381     12384     12387     12389     12381     12384     12387     12390
     12382     12381     12384     12385     12382     12381     12384     12386
     12382     12381     12384     12387     12383     12381     12384     12385
     12383     12381     12384     12386     12383     12381     12384     12387
     12384     12387     12390     12391     12384     12387     12390     12392
     12384     12387     12390     12393     12385     12384     12387     12388
     12385     12384     12387     12389     12385     12384     12387     12390
     12386     12384     12387     12388     12386     12384     12387     12389
     12386     12384     12387     12390     12387     12390     12393     12394
     12387     12390     12393     12395     12387     12390     12393     12396
     12388     12387     12390     12391     12388     12387     12390     12392
     12388     12387     12390     12393     12389     12387     12390     12391
     12389     12387     12390     12392     12389     12387     12390     12393
     12391     12390     12393     12394     12391     12390     12393     12395
     12391     12390     12393     12396     12392     12390     12393     12394
     12392     12390     12393     12395     12392     12390     12393     12396
     12397     12398     12413     12414     12397     12398     12413     12415
     12397     12398     12413     12419     12398     12397     12401     12402
     12398     12397     12401     12403     12398     12397     12401     12404
     12398     12397     12405     12406     12398     12397     12405     12407
     12398     12397     12405     12408     12398     12397     12409     12410
     12398     12397     12409     12411     12398     12397     12409     12412
     12398     12413     12419     12416     12399     12398     12397     12401
     12399     12398     12397     12405     12399     12398     12397     12409
     12399     12398     12413     12414     12399     12398     12413     12415
     12399     12398     12413     12419     12400     12398     12397     12401
     12400     12398     12397     12405     12400     12398     12397     12409
     12400     12398     12413     12414     12400     12398     12413     12415
     12400     12398     12413     12419     12401     12397     12398     12413
     12401     12397     12405     12406     12401     12397     12405     12407
     12401     12397     12405     12408     12401     12397     12409     12410
     12401     12397     12409     12411     12401     12397     12409     12412
     12402     12401     12397     12405     12402     12401     12397     12409
     12403     12401     12397     12405     12403     12401     12397     12409
     12404     12401     12397     12405     12404     12401     12397     12409
     12405     12397     12398     12413     12405     12397     12409     12410
     12405     12397     12409     12411     12405     12397     12409     12412
     12406     12405     12397     12409     12407     12405     12397     12409
     12408     12405     12397     12409     12409     12397     12398     12413
     12413     12419     12416     12417     12413     12419     12416     12418
     12413     12419     12416     12420     12414     12413     12419     12416
     12415     12413     12419     12416     12416     12420     12421     12422
     12416     12420     12421     12423     12416     12420     12421     12424
     12417     12416     12420     12421     12418     12416     12420     12421
     12419     12416     12420     12421     12420     12421     12424     12425
     12420     12421     12424     12426     12420     12421     12424     12432
     12421     12424     12426     12427     12421     12424     12432     12433
     12421     12424     12432     12434     12421     12424     12432     12435
     12422     12421     12424     12425     12422     12421     12424     12426
     12422     12421     12424     12432     12423     12421     12424     12425
     12423     12421     12424     12426     12423     12421     12424     12432
     12424     12426     12427     12428     12424     12426     12427     12429
     12424     12432     12435     12436     12425     12424     12426     12427
     12425     12424     12432     12433     12425     12424     12432     12434
     12425     12424     12432     12435     12426     12424     12432     12433
     12426     12424     12432     12434     12426     12424     12432     12435
     12426     12427     12429     12430     12426     12427     12429     12431
     12426     12427     12429     12441     12427     12426     12424     12432
     12427     12429     12441     12442     12427     12429     12441     12443
     12427     12429     12441     12444     12428     12427     12429     12430
     12428     12427     12429     12431     12428     12427     12429     12441
     12429     12441     12444     12445     12429     12441     12444     12446
     12429     12441     12444     12447     12430     12429     12441     12442
     12430     12429     12441     12443     12430     12429     12441     12444
     12431     12429     12441     12442     12431     12429     12441     12443
     12431     12429     12441     12444     12432     12435     12436     12437
     12432     12435     12436     12438     12433     12432     12435     12436
     12434     12432     12435     12436     12435     12436     12438     12439
     12435     12436     12438     12440     12435     12436     12438     12488
     12436     12438     12488     12489     12436     12438     12488     12490
     12436     12438     12488     12491     12437     12436     12438     12439
     12437     12436     12438     12440     12437     12436     12438     12488
     12438     12488     12491     12492     12438     12488     12491     12493
     12438     12488     12491     12494     12439     12438     12488     12489
     12439     12438     12488     12490     12439     12438     12488     12491
     12440     12438     12488     12489     12440     12438     12488     12490
     12440     12438     12488     12491     12441     12444     12447     12448
     12441     12444     12447     12449     12441     12444     12447     12450
     12442     12441     12444     12445     12442     12441     12444     12446
     12442     12441     12444     12447     12443     12441     12444     12445
     12443     12441     12444     12446     12443     12441     12444     12447
     12444     12447     12450     12451     12444     12447     12450     12452
     12444     12447     12450     12453     12445     12444     12447     12448
     12445     12444     12447     12449     12445     12444     12447     12450
     12446     12444     12447     12448     12446     12444     12447     12449
     12446     12444     12447     12450     12447     12450     12453     12454
     12447     12450     12453     12455     12447     12450     12453     12456
     12448     12447     12450     12451     12448     12447     12450     12452
     12448     12447     12450     12453     12449     12447     12450     12451
     12449     12447     12450     12452     12449     12447     12450     12453
     12450     12453     12456     12457     12450     12453     12456     12458
     12450     12453     12456     12459     12451     12450     12453     12454
     12451     12450     12453     12455     12451     12450     12453     12456
     12452     12450     12453     12454     12452     12450     12453     12455
     12452     12450     12453     12456     12453     12456     12459     12460
     12453     12456     12459     12461     12454     12453     12456     12457
     12454     12453     12456     12458     12454     12453     12456     12459
     12455     12453     12456     12457     12455     12453     12456     12458
     12455     12453     12456     12459     12456     12459     12461     12462
     12456     12459     12461     12463     12457     12456     12459     12460
     12457     12456     12459     12461     12458     12456     12459     12460
     12458     12456     12459     12461     12459     12461     12463     12464
     12459     12461     12463     12465     12459     12461     12463     12466
     12460     12459     12461     12462     12460     12459     12461     12463
     12461     12463     12466     12467     12461     12463     12466     12468
     12461     12463     12466     12469     12462     12461     12463     12464
     12462     12461     12463     12465     12462     12461     12463     12466
     12463     12466     12469     12470     12463     12466     12469     12471
     12463     12466     12469     12472     12464     12463     12466     12467
     12464     12463     12466     12468     12464     12463     12466     12469
     12465     12463     12466     12467     12465     12463     12466     12468
     12465     12463     12466     12469     12466     12469     12472     12473
     12466     12469     12472     12474     12466     12469     12472     12475
     12467     12466     12469     12470     12467     12466     12469     12471
     12467     12466     12469     12472     12468     12466     12469     12470
     12468     12466     12469     12471     12468     12466     12469     12472
     12469     12472     12475     12476     12469     12472     12475     12477
     12469     12472     12475     12478     12470     12469     12472     12473
     12470     12469     12472     12474     12470     12469     12472     12475
     12471     12469     12472     12473     12471     12469     12472     12474
     12471     12469     12472     12475     12472     12475     12478     12479
     12472     12475     12478     12480     12472     12475     12478     12481
     12473     12472     12475     12476     12473     12472     12475     12477
     12473     12472     12475     12478     12474     12472     12475     12476
     12474     12472     12475     12477     12474     12472     12475     12478
     12475     12478     12481     12482     12475     12478     12481     12483
     12475     12478     12481     12484     12476     12475     12478     12479
     12476     12475     12478     12480     12476     12475     12478     12481
     12477     12475     12478     12479     12477     12475     12478     12480
     12477     12475     12478     12481     12478     12481     12484     12485
     12478     12481     12484     12486     12478     12481     12484     12487
     12479     12478     12481     12482     12479     12478     12481     12483
     12479     12478     12481     12484     12480     12478     12481     12482
     12480     12478     12481     12483     12480     12478     12481     12484
     12482     12481     12484     12485     12482     12481     12484     12486
     12482     12481     12484     12487     12483     12481     12484     12485
     12483     12481     12484     12486     12483     12481     12484     12487
     12488     12491     12494     12495     12488     12491     12494     12496
     12488     12491     12494     12497     12489     12488     12491     12492
     12489     12488     12491     12493     12489     12488     12491     12494
     12490     12488     12491     12492     12490     12488     12491     12493
     12490     12488     12491     12494     12491     12494     12497     12498
     12491     12494     12497     12499     12491     12494     12497     12500
     12492     12491     12494     12495     12492     12491     12494     12496
     12492     12491     12494     12497     12493     12491     12494     12495
     12493     12491     12494     12496     12493     12491     12494     12497
     12494     12497     12500     12501     12494     12497     12500     12502
     12494     12497     12500     12503     12495     12494     12497     12498
     12495     12494     12497     12499     12495     12494     12497     12500
     12496     12494     12497     12498     12496     12494     12497     12499
     12496     12494     12497     12500     12497     12500     12503     12504
     12497     12500     12503     12505     12497     12500     12503     12506
     12498     12497     12500     12501     12498     12497     12500     12502
     12498     12497     12500     12503     12499     12497     12500     12501
     12499     12497     12500     12502     12499     12497     12500     12503
     12500     12503     12506     12507     12500     12503     12506     12508
     12500     12503     12506     12509     12501     12500     12503     12504
     12501     12500     12503     12505     12501     12500     12503     12506
     12502     12500     12503     12504     12502     12500     12503     12505
     12502     12500     12503     12506     12503     12506     12509     12510
     12503     12506     12509     12511     12503     12506     12509     12512
     12504     12503     12506     12507     12504     12503     12506     12508
     12504     12503     12506     12509     12505     12503     12506     12507
     12505     12503     12506     12508     12505     12503     12506     12509
     12506     12509     12512     12513     12506     12509     12512     12514
     12506     12509     12512     12515     12507     12506     12509     12510
     12507     12506     12509     12511     12507     12506     12509     12512
     12508     12506     12509     12510     12508     12506     12509     12511
     12508     12506     12509     12512     12509     12512     12515     12516
     12509     12512     12515     12517     12509     12512     12515     12518
     12510     12509     12512     12513     12510     12509     12512     12514
     12510     12509     12512     12515     12511     12509     12512     12513
     12511     12509     12512     12514     12511     12509     12512     12515
     12512     12515     12518     12519     12512     12515     12518     12520
     12512     12515     12518     12521     12513     12512     12515     12516
     12513     12512     12515     12517     12513     12512     12515     12518
     12514     12512     12515     12516     12514     12512     12515     12517
     12514     12512     12515     12518     12515     12518     12521     12522
     12515     12518     12521     12523     12515     12518     12521     12524
     12516     12515     12518     12519     12516     12515     12518     12520
     12516     12515     12518     12521     12517     12515     12518     12519
     12517     12515     12518     12520     12517     12515     12518     12521
     12518     12521     12524     12525     12518     12521     12524     12526
     12518     12521     12524     12527     12519     12518     12521     12522
     12519     12518     12521     12523     12519     12518     12521     12524
     12520     12518     12521     12522     12520     12518     12521     12523
     12520     12518     12521     12524     12521     12524     12527     12528
     12521     12524     12527     12529     12521     12524     12527     12530
     12522     12521     12524     12525     12522     12521     12524     12526
     12522     12521     12524     12527     12523     12521     12524     12525
     12523     12521     12524     12526     12523     12521     12524     12527
     12525     12524     12527     12528     12525     12524     12527     12529
     12525     12524     12527     12530     12526     12524     12527     12528
     12526     12524     12527     12529     12526     12524     12527     12530
     12531     12532     12547     12548     12531     12532     12547     12549
     12531     12532     12547     12553     12532     12531     12535     12536
     12532     12531     12535     12537     12532     12531     12535     12538
     12532     12531     12539     12540     12532     12531     12539     12541
     12532     12531     12539     12542     12532     12531     12543     12544
     12532     12531     12543     12545     12532     12531     12543     12546
     12532     12547     12553     12550     12533     12532     12531     12535
     12533     12532     12531     12539     12533     12532     12531     12543
     12533     12532     12547     12548     12533     12532     12547     12549
     12533     12532     12547     12553     12534     12532     12531     12535
     12534     12532     12531     12539     12534     12532     12531     12543
     12534     12532     12547     12548     12534     12532     12547     12549
     12534     12532     12547     12553     12535     12531     12532     12547
     12535     12531     12539     12540     12535     12531     12539     12541
     12535     12531     12539     12542     12535     12531     12543     12544
     12535     12531     12543     12545     12535     12531     12543     12546
     12536     12535     12531     12539     12536     12535     12531     12543
     12537     12535     12531     12539     12537     12535     12531     12543
     12538     12535     12531     12539     12538     12535     12531     12543
     12539     12531     12532     12547     12539     12531     12543     12544
     12539     12531     12543     12545     12539     12531     12543     12546
     12540     12539     12531     12543     12541     12539     12531     12543
     12542     12539     12531     12543     12543     12531     12532     12547
     12547     12553     12550     12551     12547     12553     12550     12552
     12547     12553     12550     12554     12548     12547     12553     12550
     12549     12547     12553     12550     12550     12554     12555     12556
     12550     12554     12555     12557     12550     12554     12555     12558
     12551     12550     12554     12555     12552     12550     12554     12555
     12553     12550     12554     12555     12554     12555     12558     12559
     12554     12555     12558     12560     12554     12555     12558     12566
     12555     12558     12560     12561     12555     12558     12566     12567
     12555     12558     12566     12568     12555     12558     12566     12569
     12556     12555     12558     12559     12556     12555     12558     12560
     12556     12555     12558     12566     12557     12555     12558     12559
     12557     12555     12558     12560     12557     12555     12558     12566
     12558     12560     12561     12562     12558     12560     12561     12563
     12558     12566     12569     12570     12559     12558     12560     12561
     12559     12558     12566     12567     12559     12558     12566     12568
     12559     12558     12566     12569     12560     12558     12566     12567
     12560     12558     12566     12568     12560     12558     12566     12569
     12560     12561     12563     12564     12560     12561     12563     12565
     12560     12561     12563     12575     12561     12560     12558     12566
     12561     12563     12575     12576     12561     12563     12575     12577
     12561     12563     12575     12578     12562     12561     12563     12564
     12562     12561     12563     12565     12562     12561     12563     12575
     12563     12575     12578     12579     12563     12575     12578     12580
     12563     12575     12578     12581     12564     12563     12575     12576
     12564     12563     12575     12577     12564     12563     12575     12578
     12565     12563     12575     12576     12565     12563     12575     12577
     12565     12563     12575     12578     12566     12569     12570     12571
     12566     12569     12570     12572     12567     12566     12569     12570
     12568     12566     12569     12570     12569     12570     12572     12573
     12569     12570     12572     12574     12569     12570     12572     12622
     12570     12572     12622     12623     12570     12572     12622     12624
     12570     12572     12622     12625     12571     12570     12572     12573
     12571     12570     12572     12574     12571     12570     12572     12622
     12572     12622     12625     12626     12572     12622     12625     12627
     12572     12622     12625     12628     12573     12572     12622     12623
     12573     12572     12622     12624     12573     12572     12622     12625
     12574     12572     12622     12623     12574     12572     12622     12624
     12574     12572     12622     12625     12575     12578     12581     12582
     12575     12578     12581     12583     12575     12578     12581     12584
     12576     12575     12578     12579     12576     12575     12578     12580
     12576     12575     12578     12581     12577     12575     12578     12579
     12577     12575     12578     12580     12577     12575     12578     12581
     12578     12581     12584     12585     12578     12581     12584     12586
     12578     12581     12584     12587     12579     12578     12581     12582
     12579     12578     12581     12583     12579     12578     12581     12584
     12580     12578     12581     12582     12580     12578     12581     12583
     12580     12578     12581     12584     12581     12584     12587     12588
     12581     12584     12587     12589     12581     12584     12587     12590
     12582     12581     12584     12585     12582     12581     12584     12586
     12582     12581     12584     12587     12583     12581     12584     12585
     12583     12581     12584     12586     12583     12581     12584     12587
     12584     12587     12590     12591     12584     12587     12590     12592
     12584     12587     12590     12593     12585     12584     12587     12588
     12585     12584     12587     12589     12585     12584     12587     12590
     12586     12584     12587     12588     12586     12584     12587     12589
     12586     12584     12587     12590     12587     12590     12593     12594
     12587     12590     12593     12595     12588     12587     12590     12591
     12588     12587     12590     12592     12588     12587     12590     12593
     12589     12587     12590     12591     12589     12587     12590     12592
     12589     12587     12590     12593     12590     12593     12595     12596
     12590     12593     12595     12597     12591     12590     12593     12594
     12591     12590     12593     12595     12592     12590     12593     12594
     12592     12590     12593     12595     12593     12595     12597     12598
     12593     12595     12597     12599     12593     12595     12597     12600
     12594     12593     12595     12596     12594     12593     12595     12597
     12595     12597     12600     12601     12595     12597     12600     12602
     12595     12597     12600     12603     12596     12595     12597     12598
     12596     12595     12597     12599     12596     12595     12597     12600
     12597     12600     12603     12604     12597     12600     12603     12605
     12597     12600     12603     12606     12598     12597     12600     12601
     12598     12597     12600     12602     12598     12597     12600     12603
     12599     12597     12600     12601     12599     12597     12600     12602
     12599     12597     12600     12603     12600     12603     12606     12607
     12600     12603     12606     12608     12600     12603     12606     12609
     12601     12600     12603     12604     12601     12600     12603     12605
     12601     12600     12603     12606     12602     12600     12603     12604
     12602     12600     12603     12605     12602     12600     12603     12606
     12603     12606     12609     12610     12603     12606     12609     12611
     12603     12606     12609     12612     12604     12603     12606     12607
     12604     12603     12606     12608     12604     12603     12606     12609
     12605     12603     12606     12607     12605     12603     12606     12608
     12605     12603     12606     12609     12606     12609     12612     12613
     12606     12609     12612     12614     12606     12609     12612     12615
     12607     12606     12609     12610     12607     12606     12609     12611
     12607     12606     12609     12612     12608     12606     12609     12610
     12608     12606     12609     12611     12608     12606     12609     12612
     12609     12612     12615     12616     12609     12612     12615     12617
     12609     12612     12615     12618     12610     12609     12612     12613
     12610     12609     12612     12614     12610     12609     12612     12615
     12611     12609     12612     12613     12611     12609     12612     12614
     12611     12609     12612     12615     12612     12615     12618     12619
     12612     12615     12618     12620     12612     12615     12618     12621
     12613     12612     12615     12616     12613     12612     12615     12617
     12613     12612     12615     12618     12614     12612     12615     12616
     12614     12612     12615     12617     12614     12612     12615     12618
     12616     12615     12618     12619     12616     12615     12618     12620
     12616     12615     12618     12621     12617     12615     12618     12619
     12617     12615     12618     12620     12617     12615     12618     12621
     12622     12625     12628     12629     12622     12625     12628     12630
     12622     12625     12628     12631     12623     12622     12625     12626
     12623     12622     12625     12627     12623     12622     12625     12628
     12624     12622     12625     12626     12624     12622     12625     12627
     12624     12622     12625     12628     12625     12628     12631     12632
     12625     12628     12631     12633     12625     12628     12631     12634
     12626     12625     12628     12629     12626     12625     12628     12630
     12626     12625     12628     12631     12627     12625     12628     12629
     12627     12625     12628     12630     12627     12625     12628     12631
     12628     12631     12634     12635     12628     12631     12634     12636
     12628     12631     12634     12637     12629     12628     12631     12632
     12629     12628     12631     12633     12629     12628     12631     12634
     12630     12628     12631     12632     12630     12628     12631     12633
     12630     12628     12631     12634     12631     12634     12637     12638
     12631     12634     12637     12639     12631     12634     12637     12640
     12632     12631     12634     12635     12632     12631     12634     12636
     12632     12631     12634     12637     12633     12631     12634     12635
     12633     12631     12634     12636     12633     12631     12634     12637
     12634     12637     12640     12641     12634     12637     12640     12642
     12634     12637     12640     12643     12635     12634     12637     12638
     12635     12634     12637     12639     12635     12634     12637     12640
     12636     12634     12637     12638     12636     12634     12637     12639
     12636     12634     12637     12640     12637     12640     12643     12644
     12637     12640     12643     12645     12637     12640     12643     12646
     12638     12637     12640     12641     12638     12637     12640     12642
     12638     12637     12640     12643     12639     12637     12640     12641
     12639     12637     12640     12642     12639     12637     12640     12643
     12640     12643     12646     12647     12640     12643     12646     12648
     12640     12643     12646     12649     12641     12640     12643     12644
     12641     12640     12643     12645     12641     12640     12643     12646
     12642     12640     12643     12644     12642     12640     12643     12645
     12642     12640     12643     12646     12643     12646     12649     12650
     12643     12646     12649     12651     12643     12646     12649     12652
     12644     12643     12646     12647     12644     12643     12646     12648
     12644     12643     12646     12649     12645     12643     12646     12647
     12645     12643     12646     12648     12645     12643     12646     12649
     12646     12649     12652     12653     12646     12649     12652     12654
     12646     12649     12652     12655     12647     12646     12649     12650
     12647     12646     12649     12651     12647     12646     12649     12652
     12648     12646     12649     12650     12648     12646     12649     12651
     12648     12646     12649     12652     12649     12652     12655     12656
     12649     12652     12655     12657     12649     12652     12655     12658
     12650     12649     12652     12653     12650     12649     12652     12654
     12650     12649     12652     12655     12651     12649     12652     12653
     12651     12649     12652     12654     12651     12649     12652     12655
     12652     12655     12658     12659     12652     12655     12658     12660
     12652     12655     12658     12661     12653     12652     12655     12656
     12653     12652     12655     12657     12653     12652     12655     12658
     12654     12652     12655     12656     12654     12652     12655     12657
     12654     12652     12655     12658     12655     12658     12661     12662
     12655     12658     12661     12663     12655     12658     12661     12664
     12656     12655     12658     12659     12656     12655     12658     12660
     12656     12655     12658     12661     12657     12655     12658     12659
     12657     12655     12658     12660     12657     12655     12658     12661
     12659     12658     12661     12662     12659     12658     12661     12663
     12659     12658     12661     12664     12660     12658     12661     12662
     12660     12658     12661     12663     12660     12658     12661     12664
     12665     12666     12681     12682     12665     12666     12681     12683
     12665     12666     12681     12687     12666     12665     12669     12670
     12666     12665     12669     12671     12666     12665     12669     12672
     12666     12665     12673     12674     12666     12665     12673     12675
     12666     12665     12673     12676     12666     12665     12677     12678
     12666     12665     12677     12679     12666     12665     12677     12680
     12666     12681     12687     12684     12667     12666     12665     12669
     12667     12666     12665     12673     12667     12666     12665     12677
     12667     12666     12681     12682     12667     12666     12681     12683
     12667     12666     12681     12687     12668     12666     12665     12669
     12668     12666     12665     12673     12668     12666     12665     12677
     12668     12666     12681     12682     12668     12666     12681     12683
     12668     12666     12681     12687     12669     12665     12666     12681
     12669     12665     12673     12674     12669     12665     12673     12675
     12669     12665     12673     12676     12669     12665     12677     12678
     12669     12665     12677     12679     12669     12665     12677     12680
     12670     12669     12665     12673     12670     12669     12665     12677
     12671     12669     12665     12673     12671     12669     12665     12677
     12672     12669     12665     12673     12672     12669     12665     12677
     12673     12665     12666     12681     12673     12665     12677     12678
     12673     12665     12677     12679     12673     12665     12677     12680
     12674     12673     12665     12677     12675     12673     12665     12677
     12676     12673     12665     12677     12677     12665     12666     12681
     12681     12687     12684     12685     12681     12687     12684     12686
     12681     12687     12684     12688     12682     12681     12687     12684
     12683     12681     12687     12684     12684     12688     12689     12690
     12684     12688     12689     12691     12684     12688     12689     12692
     12685     12684     12688     12689     12686     12684     12688     12689
     12687     12684     12688     12689     12688     12689     12692     12693
     12688     12689     12692     12694     12688     12689     12692     12700
     12689     12692     12694     12695     12689     12692     12700     12701
     12689     12692     12700     12702     12689     12692     12700     12703
     12690     12689     12692     12693     12690     12689     12692     12694
     12690     12689     12692     12700     12691     12689     12692     12693
     12691     12689     12692     12694     12691     12689     12692     12700
     12692     12694     12695     12696     12692     12694     12695     12697
     12692     12700     12703     12704     12693     12692     12694     12695
     12693     12692     12700     12701     12693     12692     12700     12702
     12693     12692     12700     12703     12694     12692     12700     12701
     12694     12692     12700     12702     12694     12692     12700     12703
     12694     12695     12697     12698     12694     12695     12697     12699
     12694     12695     12697     12709     12695     12694     12692     12700
     12695     12697     12709     12710     12695     12697     12709     12711
     12695     12697     12709     12712     12696     12695     12697     12698
     12696     12695     12697     12699     12696     12695     12697     12709
     12697     12709     12712     12713     12697     12709     12712     12714
     12697     12709     12712     12715     12698     12697     12709     12710
     12698     12697     12709     12711     12698     12697     12709     12712
     12699     12697     12709     12710     12699     12697     12709     12711
     12699     12697     12709     12712     12700     12703     12704     12705
     12700     12703     12704     12706     12701     12700     12703     12704
     12702     12700     12703     12704     12703     12704     12706     12707
     12703     12704     12706     12708     12703     12704     12706     12756
     12704     12706     12756     12757     12704     12706     12756     12758
     12704     12706     12756     12759     12705     12704     12706     12707
     12705     12704     12706     12708     12705     12704     12706     12756
     12706     12756     12759     12760     12706     12756     12759     12761
     12706     12756     12759     12762     12707     12706     12756     12757
     12707     12706     12756     12758     12707     12706     12756     12759
     12708     12706     12756     12757     12708     12706     12756     12758
     12708     12706     12756     12759     12709     12712     12715     12716
     12709     12712     12715     12717     12709     12712     12715     12718
     12710     12709     12712     12713     12710     12709     12712     12714
     12710     12709     12712     12715     12711     12709     12712     12713
     12711     12709     12712     12714     12711     12709     12712     12715
     12712     12715     12718     12719     12712     12715     12718     12720
     12712     12715     12718     12721     12713     12712     12715     12716
     12713     12712     12715     12717     12713     12712     12715     12718
     12714     12712     12715     12716     12714     12712     12715     12717
     12714     12712     12715     12718     12715     12718     12721     12722
     12715     12718     12721     12723     12715     12718     12721     12724
     12716     12715     12718     12719     12716     12715     12718     12720
     12716     12715     12718     12721     12717     12715     12718     12719
     12717     12715     12718     12720     12717     12715     12718     12721
     12718     12721     12724     12725     12718     12721     12724     12726
     12718     12721     12724     12727     12719     12718     12721     12722
     12719     12718     12721     12723     12719     12718     12721     12724
     12720     12718     12721     12722     12720     12718     12721     12723
     12720     12718     12721     12724     12721     12724     12727     12728
     12721     12724     12727     12729     12722     12721     12724     12725
     12722     12721     12724     12726     12722     12721     12724     12727
     12723     12721     12724     12725     12723     12721     12724     12726
     12723     12721     12724     12727     12724     12727     12729     12730
     12724     12727     12729     12731     12725     12724     12727     12728
     12725     12724     12727     12729     12726     12724     12727     12728
     12726     12724     12727     12729     12727     12729     12731     12732
     12727     12729     12731     12733     12727     12729     12731     12734
     12728     12727     12729     12730     12728     12727     12729     12731
     12729     12731     12734     12735     12729     12731     12734     12736
     12729     12731     12734     12737     12730     12729     12731     12732
     12730     12729     12731     12733     12730     12729     12731     12734
     12731     12734     12737     12738     12731     12734     12737     12739
     12731     12734     12737     12740     12732     12731     12734     12735
     12732     12731     12734     12736     12732     12731     12734     12737
     12733     12731     12734     12735     12733     12731     12734     12736
     12733     12731     12734     12737     12734     12737     12740     12741
     12734     12737     12740     12742     12734     12737     12740     12743
     12735     12734     12737     12738     12735     12734     12737     12739
     12735     12734     12737     12740     12736     12734     12737     12738
     12736     12734     12737     12739     12736     12734     12737     12740
     12737     12740     12743     12744     12737     12740     12743     12745
     12737     12740     12743     12746     12738     12737     12740     12741
     12738     12737     12740     12742     12738     12737     12740     12743
     12739     12737     12740     12741     12739     12737     12740     12742
     12739     12737     12740     12743     12740     12743     12746     12747
     12740     12743     12746     12748     12740     12743     12746     12749
     12741     12740     12743     12744     12741     12740     12743     12745
     12741     12740     12743     12746     12742     12740     12743     12744
     12742     12740     12743     12745     12742     12740     12743     12746
     12743     12746     12749     12750     12743     12746     12749     12751
     12743     12746     12749     12752     12744     12743     12746     12747
     12744     12743     12746     12748     12744     12743     12746     12749
     12745     12743     12746     12747     12745     12743     12746     12748
     12745     12743     12746     12749     12746     12749     12752     12753
     12746     12749     12752     12754     12746     12749     12752     12755
     12747     12746     12749     12750     12747     12746     12749     12751
     12747     12746     12749     12752     12748     12746     12749     12750
     12748     12746     12749     12751     12748     12746     12749     12752
     12750     12749     12752     12753     12750     12749     12752     12754
     12750     12749     12752     12755     12751     12749     12752     12753
     12751     12749     12752     12754     12751     12749     12752     12755
     12756     12759     12762     12763     12756     12759     12762     12764
     12756     12759     12762     12765     12757     12756     12759     12760
     12757     12756     12759     12761     12757     12756     12759     12762
     12758     12756     12759     12760     12758     12756     12759     12761
     12758     12756     12759     12762     12759     12762     12765     12766
     12759     12762     12765     12767     12759     12762     12765     12768
     12760     12759     12762     12763     12760     12759     12762     12764
     12760     12759     12762     12765     12761     12759     12762     12763
     12761     12759     12762     12764     12761     12759     12762     12765
     12762     12765     12768     12769     12762     12765     12768     12770
     12762     12765     12768     12771     12763     12762     12765     12766
     12763     12762     12765     12767     12763     12762     12765     12768
     12764     12762     12765     12766     12764     12762     12765     12767
     12764     12762     12765     12768     12765     12768     12771     12772
     12765     12768     12771     12773     12765     12768     12771     12774
     12766     12765     12768     12769     12766     12765     12768     12770
     12766     12765     12768     12771     12767     12765     12768     12769
     12767     12765     12768     12770     12767     12765     12768     12771
     12768     12771     12774     12775     12768     12771     12774     12776
     12768     12771     12774     12777     12769     12768     12771     12772
     12769     12768     12771     12773     12769     12768     12771     12774
     12770     12768     12771     12772     12770     12768     12771     12773
     12770     12768     12771     12774     12771     12774     12777     12778
     12771     12774     12777     12779     12771     12774     12777     12780
     12772     12771     12774     12775     12772     12771     12774     12776
     12772     12771     12774     12777     12773     12771     12774     12775
     12773     12771     12774     12776     12773     12771     12774     12777
     12774     12777     12780     12781     12774     12777     12780     12782
     12774     12777     12780     12783     12775     12774     12777     12778
     12775     12774     12777     12779     12775     12774     12777     12780
     12776     12774     12777     12778     12776     12774     12777     12779
     12776     12774     12777     12780     12777     12780     12783     12784
     12777     12780     12783     12785     12777     12780     12783     12786
     12778     12777     12780     12781     12778     12777     12780     12782
     12778     12777     12780     12783     12779     12777     12780     12781
     12779     12777     12780     12782     12779     12777     12780     12783
     12780     12783     12786     12787     12780     12783     12786     12788
     12780     12783     12786     12789     12781     12780     12783     12784
     12781     12780     12783     12785     12781     12780     12783     12786
     12782     12780     12783     12784     12782     12780     12783     12785
     12782     12780     12783     12786     12783     12786     12789     12790
     12783     12786     12789     12791     12783     12786     12789     12792
     12784     12783     12786     12787     12784     12783     12786     12788
     12784     12783     12786     12789     12785     12783     12786     12787
     12785     12783     12786     12788     12785     12783     12786     12789
     12786     12789     12792     12793     12786     12789     12792     12794
     12786     12789     12792     12795     12787     12786     12789     12790
     12787     12786     12789     12791     12787     12786     12789     12792
     12788     12786     12789     12790     12788     12786     12789     12791
     12788     12786     12789     12792     12789     12792     12795     12796
     12789     12792     12795     12797     12789     12792     12795     12798
     12790     12789     12792     12793     12790     12789     12792     12794
     12790     12789     12792     12795     12791     12789     12792     12793
     12791     12789     12792     12794     12791     12789     12792     12795
     12793     12792     12795     12796     12793     12792     12795     12797
     12793     12792     12795     12798     12794     12792     12795     12796
     12794     12792     12795     12797     12794     12792     12795     12798
     12799     12800     12815     12816     12799     12800     12815     12817
     12799     12800     12815     12821     12800     12799     12803     12804
     12800     12799     12803     12805     12800     12799     12803     12806
     12800     12799     12807     12808     12800     12799     12807     12809
     12800     12799     12807     12810     12800     12799     12811     12812
     12800     12799     12811     12813     12800     12799     12811     12814
     12800     12815     12821     12818     12801     12800     12799     12803
     12801     12800     12799     12807     12801     12800     12799     12811
     12801     12800     12815     12816     12801     12800     12815     12817
     12801     12800     12815     12821     12802     12800     12799     12803
     12802     12800     12799     12807     12802     12800     12799     12811
     12802     12800     12815     12816     12802     12800     12815     12817
     12802     12800     12815     12821     12803     12799     12800     12815
     12803     12799     12807     12808     12803     12799     12807     12809
     12803     12799     12807     12810     12803     12799     12811     12812
     12803     12799     12811     12813     12803     12799     12811     12814
     12804     12803     12799     12807     12804     12803     12799     12811
     12805     12803     12799     12807     12805     12803     12799     12811
     12806     12803     12799     12807     12806     12803     12799     12811
     12807     12799     12800     12815     12807     12799     12811     12812
     12807     12799     12811     12813     12807     12799     12811     12814
     12808     12807     12799     12811     12809     12807     12799     12811
     12810     12807     12799     12811     12811     12799     12800     12815
     12815     12821     12818     12819     12815     12821     12818     12820
     12815     12821     12818     12822     12816     12815     12821     12818
     12817     12815     12821     12818     12818     12822     12823     12824
     12818     12822     12823     12825     12818     12822     12823     12826
     12819     12818     12822     12823     12820     12818     12822     12823
     12821     12818     12822     12823     12822     12823     12826     12827
     12822     12823     12826     12828     12822     12823     12826     12834
     12823     12826     12828     12829     12823     12826     12834     12835
     12823     12826     12834     12836     12823     12826     12834     12837
     12824     12823     12826     12827     12824     12823     12826     12828
     12824     12823     12826     12834     12825     12823     12826     12827
     12825     12823     12826     12828     12825     12823     12826     12834
     12826     12828     12829     12830     12826     12828     12829     12831
     12826     12834     12837     12838     12827     12826     12828     12829
     12827     12826     12834     12835     12827     12826     12834     12836
     12827     12826     12834     12837     12828     12826     12834     12835
     12828     12826     12834     12836     12828     12826     12834     12837
     12828     12829     12831     12832     12828     12829     12831     12833
     12828     12829     12831     12843     12829     12828     12826     12834
     12829     12831     12843     12844     12829     12831     12843     12845
     12829     12831     12843     12846     12830     12829     12831     12832
     12830     12829     12831     12833     12830     12829     12831     12843
     12831     12843     12846     12847     12831     12843     12846     12848
     12831     12843     12846     12849     12832     12831     12843     12844
     12832     12831     12843     12845     12832     12831     12843     12846
     12833     12831     12843     12844     12833     12831     12843     12845
     12833     12831     12843     12846     12834     12837     12838     12839
     12834     12837     12838     12840     12835     12834     12837     12838
     12836     12834     12837     12838     12837     12838     12840     12841
     12837     12838     12840     12842     12837     12838     12840     12890
     12838     12840     12890     12891     12838     12840     12890     12892
     12838     12840     12890     12893     12839     12838     12840     12841
     12839     12838     12840     12842     12839     12838     12840     12890
     12840     12890     12893     12894     12840     12890     12893     12895
     12840     12890     12893     12896     12841     12840     12890     12891
     12841     12840     12890     12892     12841     12840     12890     12893
     12842     12840     12890     12891     12842     12840     12890     12892
     12842     12840     12890     12893     12843     12846     12849     12850
     12843     12846     12849     12851     12843     12846     12849     12852
     12844     12843     12846     12847     12844     12843     12846     12848
     12844     12843     12846     12849     12845     12843     12846     12847
     12845     12843     12846     12848     12845     12843     12846     12849
     12846     12849     12852     12853     12846     12849     12852     12854
     12846     12849     12852     12855     12847     12846     12849     12850
     12847     12846     12849     12851     12847     12846     12849     12852
     12848     12846     12849     12850     12848     12846     12849     12851
     12848     12846     12849     12852     12849     12852     12855     12856
     12849     12852     12855     12857     12849     12852     12855     12858
     12850     12849     12852     12853     12850     12849     12852     12854
     12850     12849     12852     12855     12851     12849     12852     12853
     12851     12849     12852     12854     12851     12849     12852     12855
     12852     12855     12858     12859     12852     12855     12858     12860
     12852     12855     12858     12861     12853     12852     12855     12856
     12853     12852     12855     12857     12853     12852     12855     12858
     12854     12852     12855     12856     12854     12852     12855     12857
     12854     12852     12855     12858     12855     12858     12861     12862
     12855     12858     12861     12863     12856     12855     12858     12859
     12856     12855     12858     12860     12856     12855     12858     12861
     12857     12855     12858     12859     12857     12855     12858     12860
     12857     12855     12858     12861     12858     12861     12863     12864
     12858     12861     12863     12865     12859     12858     12861     12862
     12859     12858     12861     12863     12860     12858     12861     12862
     12860     12858     12861     12863     12861     12863     12865     12866
     12861     12863     12865     12867     12861     12863     12865     12868
     12862     12861     12863     12864     12862     12861     12863     12865
     12863     12865     12868     12869     12863     12865     12868     12870
     12863     12865     12868     12871     12864     12863     12865     12866
     12864     12863     12865     12867     12864     12863     12865     12868
     12865     12868     12871     12872     12865     12868     12871     12873
     12865     12868     12871     12874     12866     12865     12868     12869
     12866     12865     12868     12870     12866     12865     12868     12871
     12867     12865     12868     12869     12867     12865     12868     12870
     12867     12865     12868     12871     12868     12871     12874     12875
     12868     12871     12874     12876     12868     12871     12874     12877
     12869     12868     12871     12872     12869     12868     12871     12873
     12869     12868     12871     12874     12870     12868     12871     12872
     12870     12868     12871     12873     12870     12868     12871     12874
     12871     12874     12877     12878     12871     12874     12877     12879
     12871     12874     12877     12880     12872     12871     12874     12875
     12872     12871     12874     12876     12872     12871     12874     12877
     12873     12871     12874     12875     12873     12871     12874     12876
     12873     12871     12874     12877     12874     12877     12880     12881
     12874     12877     12880     12882     12874     12877     12880     12883
     12875     12874     12877     12878     12875     12874     12877     12879
     12875     12874     12877     12880     12876     12874     12877     12878
     12876     12874     12877     12879     12876     12874     12877     12880
     12877     12880     12883     12884     12877     12880     12883     12885
     12877     12880     12883     12886     12878     12877     12880     12881
     12878     12877     12880     12882     12878     12877     12880     12883
     12879     12877     12880     12881     12879     12877     12880     12882
     12879     12877     12880     12883     12880     12883     12886     12887
     12880     12883     12886     12888     12880     12883     12886     12889
     12881     12880     12883     12884     12881     12880     12883     12885
     12881     12880     12883     12886     12882     12880     12883     12884
     12882     12880     12883     12885     12882     12880     12883     12886
     12884     12883     12886     12887     12884     12883     12886     12888
     12884     12883     12886     12889     12885     12883     12886     12887
     12885     12883     12886     12888     12885     12883     12886     12889
     12890     12893     12896     12897     12890     12893     12896     12898
     12890     12893     12896     12899     12891     12890     12893     12894
     12891     12890     12893     12895     12891     12890     12893     12896
     12892     12890     12893     12894     12892     12890     12893     12895
     12892     12890     12893     12896     12893     12896     12899     12900
     12893     12896     12899     12901     12893     12896     12899     12902
     12894     12893     12896     12897     12894     12893     12896     12898
     12894     12893     12896     12899     12895     12893     12896     12897
     12895     12893     12896     12898     12895     12893     12896     12899
     12896     12899     12902     12903     12896     12899     12902     12904
     12896     12899     12902     12905     12897     12896     12899     12900
     12897     12896     12899     12901     12897     12896     12899     12902
     12898     12896     12899     12900     12898     12896     12899     12901
     12898     12896     12899     12902     12899     12902     12905     12906
     12899     12902     12905     12907     12899     12902     12905     12908
     12900     12899     12902     12903     12900     12899     12902     12904
     12900     12899     12902     12905     12901     12899     12902     12903
     12901     12899     12902     12904     12901     12899     12902     12905
     12902     12905     12908     12909     12902     12905     12908     12910
     12902     12905     12908     12911     12903     12902     12905     12906
     12903     12902     12905     12907     12903     12902     12905     12908
     12904     12902     12905     12906     12904     12902     12905     12907
     12904     12902     12905     12908     12905     12908     12911     12912
     12905     12908     12911     12913     12905     12908     12911     12914
     12906     12905     12908     12909     12906     12905     12908     12910
     12906     12905     12908     12911     12907     12905     12908     12909
     12907     12905     12908     12910     12907     12905     12908     12911
     12908     12911     12914     12915     12908     12911     12914     12916
     12908     12911     12914     12917     12909     12908     12911     12912
     12909     12908     12911     12913     12909     12908     12911     12914
     12910     12908     12911     12912     12910     12908     12911     12913
     12910     12908     12911     12914     12911     12914     12917     12918
     12911     12914     12917     12919     12911     12914     12917     12920
     12912     12911     12914     12915     12912     12911     12914     12916
     12912     12911     12914     12917     12913     12911     12914     12915
     12913     12911     12914     12916     12913     12911     12914     12917
     12914     12917     12920     12921     12914     12917     12920     12922
     12914     12917     12920     12923     12915     12914     12917     12918
     12915     12914     12917     12919     12915     12914     12917     12920
     12916     12914     12917     12918     12916     12914     12917     12919
     12916     12914     12917     12920     12917     12920     12923     12924
     12917     12920     12923     12925     12917     12920     12923     12926
     12918     12917     12920     12921     12918     12917     12920     12922
     12918     12917     12920     12923     12919     12917     12920     12921
     12919     12917     12920     12922     12919     12917     12920     12923
     12920     12923     12926     12927     12920     12923     12926     12928
     12920     12923     12926     12929     12921     12920     12923     12924
     12921     12920     12923     12925     12921     12920     12923     12926
     12922     12920     12923     12924     12922     12920     12923     12925
     12922     12920     12923     12926     12923     12926     12929     12930
     12923     12926     12929     12931     12923     12926     12929     12932
     12924     12923     12926     12927     12924     12923     12926     12928
     12924     12923     12926     12929     12925     12923     12926     12927
     12925     12923     12926     12928     12925     12923     12926     12929
     12927     12926     12929     12930     12927     12926     12929     12931
     12927     12926     12929     12932     12928     12926     12929     12930
     12928     12926     12929     12931     12928     12926     12929     12932
     12933     12934     12949     12950     12933     12934     12949     12951
     12933     12934     12949     12955     12934     12933     12937     12938
     12934     12933     12937     12939     12934     12933     12937     12940
     12934     12933     12941     12942     12934     12933     12941     12943
     12934     12933     12941     12944     12934     12933     12945     12946
     12934     12933     12945     12947     12934     12933     12945     12948
     12934     12949     12955     12952     12935     12934     12933     12937
     12935     12934     12933     12941     12935     12934     12933     12945
     12935     12934     12949     12950     12935     12934     12949     12951
     12935     12934     12949     12955     12936     12934     12933     12937
     12936     12934     12933     12941     12936     12934     12933     12945
     12936     12934     12949     12950     12936     12934     12949     12951
     12936     12934     12949     12955     12937     12933     12934     12949
     12937     12933     12941     12942     12937     12933     12941     12943
     12937     12933     12941     12944     12937     12933     12945     12946
     12937     12933     12945     12947     12937     12933     12945     12948
     12938     12937     12933     12941     12938     12937     12933     12945
     12939     12937     12933     12941     12939     12937     12933     12945
     12940     12937     12933     12941     12940     12937     12933     12945
     12941     12933     12934     12949     12941     12933     12945     12946
     12941     12933     12945     12947     12941     12933     12945     12948
     12942     12941     12933     12945     12943     12941     12933     12945
     12944     12941     12933     12945     12945     12933     12934     12949
     12949     12955     12952     12953     12949     12955     12952     12954
     12949     12955     12952     12956     12950     12949     12955     12952
     12951     12949     12955     12952     12952     12956     12957     12958
     12952     12956     12957     12959     12952     12956     12957     12960
     12953     12952     12956     12957     12954     12952     12956     12957
     12955     12952     12956     12957     12956     12957     12960     12961
     12956     12957     12960     12962     12956     12957     12960     12968
     12957     12960     12962     12963     12957     12960     12968     12969
     12957     12960     12968     12970     12957     12960     12968     12971
     12958     12957     12960     12961     12958     12957     12960     12962
     12958     12957     12960     12968     12959     12957     12960     12961
     12959     12957     12960     12962     12959     12957     12960     12968
     12960     12962     12963     12964     12960     12962     12963     12965
     12960     12968     12971     12972     12961     12960     12962     12963
     12961     12960     12968     12969     12961     12960     12968     12970
     12961     12960     12968     12971     12962     12960     12968     12969
     12962     12960     12968     12970     12962     12960     12968     12971
     12962     12963     12965     12966     12962     12963     12965     12967
     12962     12963     12965     12977     12963     12962     12960     12968
     12963     12965     12977     12978     12963     12965     12977     12979
     12963     12965     12977     12980     12964     12963     12965     12966
     12964     12963     12965     12967     12964     12963     12965     12977
     12965     12977     12980     12981     12965     12977     12980     12982
     12965     12977     12980     12983     12966     12965     12977     12978
     12966     12965     12977     12979     12966     12965     12977     12980
     12967     12965     12977     12978     12967     12965     12977     12979
     12967     12965     12977     12980     12968     12971     12972     12973
     12968     12971     12972     12974     12969     12968     12971     12972
     12970     12968     12971     12972     12971     12972     12974     12975
     12971     12972     12974     12976     12971     12972     12974     13024
     12972     12974     13024     13025     12972     12974     13024     13026
     12972     12974     13024     13027     12973     12972     12974     12975
     12973     12972     12974     12976     12973     12972     12974     13024
     12974     13024     13027     13028     12974     13024     13027     13029
     12974     13024     13027     13030     12975     12974     13024     13025
     12975     12974     13024     13026     12975     12974     13024     13027
     12976     12974     13024     13025     12976     12974     13024     13026
     12976     12974     13024     13027     12977     12980     12983     12984
     12977     12980     12983     12985     12977     12980     12983     12986
     12978     12977     12980     12981     12978     12977     12980     12982
     12978     12977     12980     12983     12979     12977     12980     12981
     12979     12977     12980     12982     12979     12977     12980     12983
     12980     12983     12986     12987     12980     12983     12986     12988
     12980     12983     12986     12989     12981     12980     12983     12984
     12981     12980     12983     12985     12981     12980     12983     12986
     12982     12980     12983     12984     12982     12980     12983     12985
     12982     12980     12983     12986     12983     12986     12989     12990
     12983     12986     12989     12991     12983     12986     12989     12992
     12984     12983     12986     12987     12984     12983     12986     12988
     12984     12983     12986     12989     12985     12983     12986     12987
     12985     12983     12986     12988     12985     12983     12986     12989
     12986     12989     12992     12993     12986     12989     12992     12994
     12986     12989     12992     12995     12987     12986     12989     12990
     12987     12986     12989     12991     12987     12986     12989     12992
     12988     12986     12989     12990     12988     12986     12989     12991
     12988     12986     12989     12992     12989     12992     12995     12996
     12989     12992     12995     12997     12990     12989     12992     12993
     12990     12989     12992     12994     12990     12989     12992     12995
     12991     12989     12992     12993     12991     12989     12992     12994
     12991     12989     12992     12995     12992     12995     12997     12998
     12992     12995     12997     12999     12993     12992     12995     12996
     12993     12992     12995     12997     12994     12992     12995     12996
     12994     12992     12995     12997     12995     12997     12999     13000
     12995     12997     12999     13001     12995     12997     12999     13002
     12996     12995     12997     12998     12996     12995     12997     12999
     12997     12999     13002     13003     12997     12999     13002     13004
     12997     12999     13002     13005     12998     12997     12999     13000
     12998     12997     12999     13001     12998     12997     12999     13002
     12999     13002     13005     13006     12999     13002     13005     13007
     12999     13002     13005     13008     13000     12999     13002     13003
     13000     12999     13002     13004     13000     12999     13002     13005
     13001     12999     13002     13003     13001     12999     13002     13004
     13001     12999     13002     13005     13002     13005     13008     13009
     13002     13005     13008     13010     13002     13005     13008     13011
     13003     13002     13005     13006     13003     13002     13005     13007
     13003     13002     13005     13008     13004     13002     13005     13006
     13004     13002     13005     13007     13004     13002     13005     13008
     13005     13008     13011     13012     13005     13008     13011     13013
     13005     13008     13011     13014     13006     13005     13008     13009
     13006     13005     13008     13010     13006     13005     13008     13011
     13007     13005     13008     13009     13007     13005     13008     13010
     13007     13005     13008     13011     13008     13011     13014     13015
     13008     13011     13014     13016     13008     13011     13014     13017
     13009     13008     13011     13012     13009     13008     13011     13013
     13009     13008     13011     13014     13010     13008     13011     13012
     13010     13008     13011     13013     13010     13008     13011     13014
     13011     13014     13017     13018     13011     13014     13017     13019
     13011     13014     13017     13020     13012     13011     13014     13015
     13012     13011     13014     13016     13012     13011     13014     13017
     13013     13011     13014     13015     13013     13011     13014     13016
     13013     13011     13014     13017     13014     13017     13020     13021
     13014     13017     13020     13022     13014     13017     13020     13023
     13015     13014     13017     13018     13015     13014     13017     13019
     13015     13014     13017     13020     13016     13014     13017     13018
     13016     13014     13017     13019     13016     13014     13017     13020
     13018     13017     13020     13021     13018     13017     13020     13022
     13018     13017     13020     13023     13019     13017     13020     13021
     13019     13017     13020     13022     13019     13017     13020     13023
     13024     13027     13030     13031     13024     13027     13030     13032
     13024     13027     13030     13033     13025     13024     13027     13028
     13025     13024     13027     13029     13025     13024     13027     13030
     13026     13024     13027     13028     13026     13024     13027     13029
     13026     13024     13027     13030     13027     13030     13033     13034
     13027     13030     13033     13035     13027     13030     13033     13036
     13028     13027     13030     13031     13028     13027     13030     13032
     13028     13027     13030     13033     13029     13027     13030     13031
     13029     13027     13030     13032     13029     13027     13030     13033
     13030     13033     13036     13037     13030     13033     13036     13038
     13030     13033     13036     13039     13031     13030     13033     13034
     13031     13030     13033     13035     13031     13030     13033     13036
     13032     13030     13033     13034     13032     13030     13033     13035
     13032     13030     13033     13036     13033     13036     13039     13040
     13033     13036     13039     13041     13033     13036     13039     13042
     13034     13033     13036     13037     13034     13033     13036     13038
     13034     13033     13036     13039     13035     13033     13036     13037
     13035     13033     13036     13038     13035     13033     13036     13039
     13036     13039     13042     13043     13036     13039     13042     13044
     13036     13039     13042     13045     13037     13036     13039     13040
     13037     13036     13039     13041     13037     13036     13039     13042
     13038     13036     13039     13040     13038     13036     13039     13041
     13038     13036     13039     13042     13039     13042     13045     13046
     13039     13042     13045     13047     13039     13042     13045     13048
     13040     13039     13042     13043     13040     13039     13042     13044
     13040     13039     13042     13045     13041     13039     13042     13043
     13041     13039     13042     13044     13041     13039     13042     13045
     13042     13045     13048     13049     13042     13045     13048     13050
     13042     13045     13048     13051     13043     13042     13045     13046
     13043     13042     13045     13047     13043     13042     13045     13048
     13044     13042     13045     13046     13044     13042     13045     13047
     13044     13042     13045     13048     13045     13048     13051     13052
     13045     13048     13051     13053     13045     13048     13051     13054
     13046     13045     13048     13049     13046     13045     13048     13050
     13046     13045     13048     13051     13047     13045     13048     13049
     13047     13045     13048     13050     13047     13045     13048     13051
     13048     13051     13054     13055     13048     13051     13054     13056
     13048     13051     13054     13057     13049     13048     13051     13052
     13049     13048     13051     13053     13049     13048     13051     13054
     13050     13048     13051     13052     13050     13048     13051     13053
     13050     13048     13051     13054     13051     13054     13057     13058
     13051     13054     13057     13059     13051     13054     13057     13060
     13052     13051     13054     13055     13052     13051     13054     13056
     13052     13051     13054     13057     13053     13051     13054     13055
     13053     13051     13054     13056     13053     13051     13054     13057
     13054     13057     13060     13061     13054     13057     13060     13062
     13054     13057     13060     13063     13055     13054     13057     13058
     13055     13054     13057     13059     13055     13054     13057     13060
     13056     13054     13057     13058     13056     13054     13057     13059
     13056     13054     13057     13060     13057     13060     13063     13064
     13057     13060     13063     13065     13057     13060     13063     13066
     13058     13057     13060     13061     13058     13057     13060     13062
     13058     13057     13060     13063     13059     13057     13060     13061
     13059     13057     13060     13062     13059     13057     13060     13063
     13061     13060     13063     13064     13061     13060     13063     13065
     13061     13060     13063     13066     13062     13060     13063     13064
     13062     13060     13063     13065     13062     13060     13063     13066
     13067     13068     13083     13084     13067     13068     13083     13085
     13067     13068     13083     13089     13068     13067     13071     13072
     13068     13067     13071     13073     13068     13067     13071     13074
     13068     13067     13075     13076     13068     13067     13075     13077
     13068     13067     13075     13078     13068     13067     13079     13080
     13068     13067     13079     13081     13068     13067     13079     13082
     13068     13083     13089     13086     13069     13068     13067     13071
     13069     13068     13067     13075     13069     13068     13067     13079
     13069     13068     13083     13084     13069     13068     13083     13085
     13069     13068     13083     13089     13070     13068     13067     13071
     13070     13068     13067     13075     13070     13068     13067     13079
     13070     13068     13083     13084     13070     13068     13083     13085
     13070     13068     13083     13089     13071     13067     13068     13083
     13071     13067     13075     13076     13071     13067     13075     13077
     13071     13067     13075     13078     13071     13067     13079     13080
     13071     13067     13079     13081     13071     13067     13079     13082
     13072     13071     13067     13075     13072     13071     13067     13079
     13073     13071     13067     13075     13073     13071     13067     13079
     13074     13071     13067     13075     13074     13071     13067     13079
     13075     13067     13068     13083     13075     13067     13079     13080
     13075     13067     13079     13081     13075     13067     13079     13082
     13076     13075     13067     13079     13077     13075     13067     13079
     13078     13075     13067     13079     13079     13067     13068     13083
     13083     13089     13086     13087     13083     13089     13086     13088
     13083     13089     13086     13090     13084     13083     13089     13086
     13085     13083     13089     13086     13086     13090     13091     13092
     13086     13090     13091     13093     13086     13090     13091     13094
     13087     13086     13090     13091     13088     13086     13090     13091
     13089     13086     13090     13091     13090     13091     13094     13095
     13090     13091     13094     13096     13090     13091     13094     13102
     13091     13094     13096     13097     13091     13094     13102     13103
     13091     13094     13102     13104     13091     13094     13102     13105
     13092     13091     13094     13095     13092     13091     13094     13096
     13092     13091     13094     13102     13093     13091     13094     13095
     13093     13091     13094     13096     13093     13091     13094     13102
     13094     13096     13097     13098     13094     13096     13097     13099
     13094     13102     13105     13106     13095     13094     13096     13097
     13095     13094     13102     13103     13095     13094     13102     13104
     13095     13094     13102     13105     13096     13094     13102     13103
     13096     13094     13102     13104     13096     13094     13102     13105
     13096     13097     13099     13100     13096     13097     13099     13101
     13096     13097     13099     13111     13097     13096     13094     13102
     13097     13099     13111     13112     13097     13099     13111     13113
     13097     13099     13111     13114     13098     13097     13099     13100
     13098     13097     13099     13101     13098     13097     13099     13111
     13099     13111     13114     13115     13099     13111     13114     13116
     13099     13111     13114     13117     13100     13099     13111     13112
     13100     13099     13111     13113     13100     13099     13111     13114
     13101     13099     13111     13112     13101     13099     13111     13113
     13101     13099     13111     13114     13102     13105     13106     13107
     13102     13105     13106     13108     13103     13102     13105     13106
     13104     13102     13105     13106     13105     13106     13108     13109
     13105     13106     13108     13110     13105     13106     13108     13158
     13106     13108     13158     13159     13106     13108     13158     13160
     13106     13108     13158     13161     13107     13106     13108     13109
     13107     13106     13108     13110     13107     13106     13108     13158
     13108     13158     13161     13162     13108     13158     13161     13163
     13108     13158     13161     13164     13109     13108     13158     13159
     13109     13108     13158     13160     13109     13108     13158     13161
     13110     13108     13158     13159     13110     13108     13158     13160
     13110     13108     13158     13161     13111     13114     13117     13118
     13111     13114     13117     13119     13111     13114     13117     13120
     13112     13111     13114     13115     13112     13111     13114     13116
     13112     13111     13114     13117     13113     13111     13114     13115
     13113     13111     13114     13116     13113     13111     13114     13117
     13114     13117     13120     13121     13114     13117     13120     13122
     13114     13117     13120     13123     13115     13114     13117     13118
     13115     13114     13117     13119     13115     13114     13117     13120
     13116     13114     13117     13118     13116     13114     13117     13119
     13116     13114     13117     13120     13117     13120     13123     13124
     13117     13120     13123     13125     13117     13120     13123     13126
     13118     13117     13120     13121     13118     13117     13120     13122
     13118     13117     13120     13123     13119     13117     13120     13121
     13119     13117     13120     13122     13119     13117     13120     13123
     13120     13123     13126     13127     13120     13123     13126     13128
     13120     13123     13126     13129     13121     13120     13123     13124
     13121     13120     13123     13125     13121     13120     13123     13126
     13122     13120     13123     13124     13122     13120     13123     13125
     13122     13120     13123     13126     13123     13126     13129     13130
     13123     13126     13129     13131     13124     13123     13126     13127
     13124     13123     13126     13128     13124     13123     13126     13129
     13125     13123     13126     13127     13125     13123     13126     13128
     13125     13123     13126     13129     13126     13129     13131     13132
     13126     13129     13131     13133     13127     13126     13129     13130
     13127     13126     13129     13131     13128     13126     13129     13130
     13128     13126     13129     13131     13129     13131     13133     13134
     13129     13131     13133     13135     13129     13131     13133     13136
     13130     13129     13131     13132     13130     13129     13131     13133
     13131     13133     13136     13137     13131     13133     13136     13138
     13131     13133     13136     13139     13132     13131     13133     13134
     13132     13131     13133     13135     13132     13131     13133     13136
     13133     13136     13139     13140     13133     13136     13139     13141
     13133     13136     13139     13142     13134     13133     13136     13137
     13134     13133     13136     13138     13134     13133     13136     13139
     13135     13133     13136     13137     13135     13133     13136     13138
     13135     13133     13136     13139     13136     13139     13142     13143
     13136     13139     13142     13144     13136     13139     13142     13145
     13137     13136     13139     13140     13137     13136     13139     13141
     13137     13136     13139     13142     13138     13136     13139     13140
     13138     13136     13139     13141     13138     13136     13139     13142
     13139     13142     13145     13146     13139     13142     13145     13147
     13139     13142     13145     13148     13140     13139     13142     13143
     13140     13139     13142     13144     13140     13139     13142     13145
     13141     13139     13142     13143     13141     13139     13142     13144
     13141     13139     13142     13145     13142     13145     13148     13149
     13142     13145     13148     13150     13142     13145     13148     13151
     13143     13142     13145     13146     13143     13142     13145     13147
     13143     13142     13145     13148     13144     13142     13145     13146
     13144     13142     13145     13147     13144     13142     13145     13148
     13145     13148     13151     13152     13145     13148     13151     13153
     13145     13148     13151     13154     13146     13145     13148     13149
     13146     13145     13148     13150     13146     13145     13148     13151
     13147     13145     13148     13149     13147     13145     13148     13150
     13147     13145     13148     13151     13148     13151     13154     13155
     13148     13151     13154     13156     13148     13151     13154     13157
     13149     13148     13151     13152     13149     13148     13151     13153
     13149     13148     13151     13154     13150     13148     13151     13152
     13150     13148     13151     13153     13150     13148     13151     13154
     13152     13151     13154     13155     13152     13151     13154     13156
     13152     13151     13154     13157     13153     13151     13154     13155
     13153     13151     13154     13156     13153     13151     13154     13157
     13158     13161     13164     13165     13158     13161     13164     13166
     13158     13161     13164     13167     13159     13158     13161     13162
     13159     13158     13161     13163     13159     13158     13161     13164
     13160     13158     13161     13162     13160     13158     13161     13163
     13160     13158     13161     13164     13161     13164     13167     13168
     13161     13164     13167     13169     13161     13164     13167     13170
     13162     13161     13164     13165     13162     13161     13164     13166
     13162     13161     13164     13167     13163     13161     13164     13165
     13163     13161     13164     13166     13163     13161     13164     13167
     13164     13167     13170     13171     13164     13167     13170     13172
     13164     13167     13170     13173     13165     13164     13167     13168
     13165     13164     13167     13169     13165     13164     13167     13170
     13166     13164     13167     13168     13166     13164     13167     13169
     13166     13164     13167     13170     13167     13170     13173     13174
     13167     13170     13173     13175     13167     13170     13173     13176
     13168     13167     13170     13171     13168     13167     13170     13172
     13168     13167     13170     13173     13169     13167     13170     13171
     13169     13167     13170     13172     13169     13167     13170     13173
     13170     13173     13176     13177     13170     13173     13176     13178
     13170     13173     13176     13179     13171     13170     13173     13174
     13171     13170     13173     13175     13171     13170     13173     13176
     13172     13170     13173     13174     13172     13170     13173     13175
     13172     13170     13173     13176     13173     13176     13179     13180
     13173     13176     13179     13181     13173     13176     13179     13182
     13174     13173     13176     13177     13174     13173     13176     13178
     13174     13173     13176     13179     13175     13173     13176     13177
     13175     13173     13176     13178     13175     13173     13176     13179
     13176     13179     13182     13183     13176     13179     13182     13184
     13176     13179     13182     13185     13177     13176     13179     13180
     13177     13176     13179     13181     13177     13176     13179     13182
     13178     13176     13179     13180     13178     13176     13179     13181
     13178     13176     13179     13182     13179     13182     13185     13186
     13179     13182     13185     13187     13179     13182     13185     13188
     13180     13179     13182     13183     13180     13179     13182     13184
     13180     13179     13182     13185     13181     13179     13182     13183
     13181     13179     13182     13184     13181     13179     13182     13185
     13182     13185     13188     13189     13182     13185     13188     13190
     13182     13185     13188     13191     13183     13182     13185     13186
     13183     13182     13185     13187     13183     13182     13185     13188
     13184     13182     13185     13186     13184     13182     13185     13187
     13184     13182     13185     13188     13185     13188     13191     13192
     13185     13188     13191     13193     13185     13188     13191     13194
     13186     13185     13188     13189     13186     13185     13188     13190
     13186     13185     13188     13191     13187     13185     13188     13189
     13187     13185     13188     13190     13187     13185     13188     13191
     13188     13191     13194     13195     13188     13191     13194     13196
     13188     13191     13194     13197     13189     13188     13191     13192
     13189     13188     13191     13193     13189     13188     13191     13194
     13190     13188     13191     13192     13190     13188     13191     13193
     13190     13188     13191     13194     13191     13194     13197     13198
     13191     13194     13197     13199     13191     13194     13197     13200
     13192     13191     13194     13195     13192     13191     13194     13196
     13192     13191     13194     13197     13193     13191     13194     13195
     13193     13191     13194     13196     13193     13191     13194     13197
     13195     13194     13197     13198     13195     13194     13197     13199
     13195     13194     13197     13200     13196     13194     13197     13198
     13196     13194     13197     13199     13196     13194     13197     13200
     13201     13202     13217     13218     13201     13202     13217     13219
     13201     13202     13217     13223     13202     13201     13205     13206
     13202     13201     13205     13207     13202     13201     13205     13208
     13202     13201     13209     13210     13202     13201     13209     13211
     13202     13201     13209     13212     13202     13201     13213     13214
     13202     13201     13213     13215     13202     13201     13213     13216
     13202     13217     13223     13220     13203     13202     13201     13205
     13203     13202     13201     13209     13203     13202     13201     13213
     13203     13202     13217     13218     13203     13202     13217     13219
     13203     13202     13217     13223     13204     13202     13201     13205
     13204     13202     13201     13209     13204     13202     13201     13213
     13204     13202     13217     13218     13204     13202     13217     13219
     13204     13202     13217     13223     13205     13201     13202     13217
     13205     13201     13209     13210     13205     13201     13209     13211
     13205     13201     13209     13212     13205     13201     13213     13214
     13205     13201     13213     13215     13205     13201     13213     13216
     13206     13205     13201     13209     13206     13205     13201     13213
     13207     13205     13201     13209     13207     13205     13201     13213
     13208     13205     13201     13209     13208     13205     13201     13213
     13209     13201     13202     13217     13209     13201     13213     13214
     13209     13201     13213     13215     13209     13201     13213     13216
     13210     13209     13201     13213     13211     13209     13201     13213
     13212     13209     13201     13213     13213     13201     13202     13217
     13217     13223     13220     13221     13217     13223     13220     13222
     13217     13223     13220     13224     13218     13217     13223     13220
     13219     13217     13223     13220     13220     13224     13225     13226
     13220     13224     13225     13227     13220     13224     13225     13228
     13221     13220     13224     13225     13222     13220     13224     13225
     13223     13220     13224     13225     13224     13225     13228     13229
     13224     13225     13228     13230     13224     13225     13228     13236
     13225     13228     13230     13231     13225     13228     13236     13237
     13225     13228     13236     13238     13225     13228     13236     13239
     13226     13225     13228     13229     13226     13225     13228     13230
     13226     13225     13228     13236     13227     13225     13228     13229
     13227     13225     13228     13230     13227     13225     13228     13236
     13228     13230     13231     13232     13228     13230     13231     13233
     13228     13236     13239     13240     13229     13228     13230     13231
     13229     13228     13236     13237     13229     13228     13236     13238
     13229     13228     13236     13239     13230     13228     13236     13237
     13230     13228     13236     13238     13230     13228     13236     13239
     13230     13231     13233     13234     13230     13231     13233     13235
     13230     13231     13233     13245     13231     13230     13228     13236
     13231     13233     13245     13246     13231     13233     13245     13247
     13231     13233     13245     13248     13232     13231     13233     13234
     13232     13231     13233     13235     13232     13231     13233     13245
     13233     13245     13248     13249     13233     13245     13248     13250
     13233     13245     13248     13251     13234     13233     13245     13246
     13234     13233     13245     13247     13234     13233     13245     13248
     13235     13233     13245     13246     13235     13233     13245     13247
     13235     13233     13245     13248     13236     13239     13240     13241
     13236     13239     13240     13242     13237     13236     13239     13240
     13238     13236     13239     13240     13239     13240     13242     13243
     13239     13240     13242     13244     13239     13240     13242     13292
     13240     13242     13292     13293     13240     13242     13292     13294
     13240     13242     13292     13295     13241     13240     13242     13243
     13241     13240     13242     13244     13241     13240     13242     13292
     13242     13292     13295     13296     13242     13292     13295     13297
     13242     13292     13295     13298     13243     13242     13292     13293
     13243     13242     13292     13294     13243     13242     13292     13295
     13244     13242     13292     13293     13244     13242     13292     13294
     13244     13242     13292     13295     13245     13248     13251     13252
     13245     13248     13251     13253     13245     13248     13251     13254
     13246     13245     13248     13249     13246     13245     13248     13250
     13246     13245     13248     13251     13247     13245     13248     13249
     13247     13245     13248     13250     13247     13245     13248     13251
     13248     13251     13254     13255     13248     13251     13254     13256
     13248     13251     13254     13257     13249     13248     13251     13252
     13249     13248     13251     13253     13249     13248     13251     13254
     13250     13248     13251     13252     13250     13248     13251     13253
     13250     13248     13251     13254     13251     13254     13257     13258
     13251     13254     13257     13259     13251     13254     13257     13260
     13252     13251     13254     13255     13252     13251     13254     13256
     13252     13251     13254     13257     13253     13251     13254     13255
     13253     13251     13254     13256     13253     13251     13254     13257
     13254     13257     13260     13261     13254     13257     13260     13262
     13254     13257     13260     13263     13255     13254     13257     13258
     13255     13254     13257     13259     13255     13254     13257     13260
     13256     13254     13257     13258     13256     13254     13257     13259
     13256     13254     13257     13260     13257     13260     13263     13264
     13257     13260     13263     13265     13258     13257     13260     13261
     13258     13257     13260     13262     13258     13257     13260     13263
     13259     13257     13260     13261     13259     13257     13260     13262
     13259     13257     13260     13263     13260     13263     13265     13266
     13260     13263     13265     13267     13261     13260     13263     13264
     13261     13260     13263     13265     13262     13260     13263     13264
     13262     13260     13263     13265     13263     13265     13267     13268
     13263     13265     13267     13269     13263     13265     13267     13270
     13264     13263     13265     13266     13264     13263     13265     13267
     13265     13267     13270     13271     13265     13267     13270     13272
     13265     13267     13270     13273     13266     13265     13267     13268
     13266     13265     13267     13269     13266     13265     13267     13270
     13267     13270     13273     13274     13267     13270     13273     13275
     13267     13270     13273     13276     13268     13267     13270     13271
     13268     13267     13270     13272     13268     13267     13270     13273
     13269     13267     13270     13271     13269     13267     13270     13272
     13269     13267     13270     13273     13270     13273     13276     13277
     13270     13273     13276     13278     13270     13273     13276     13279
     13271     13270     13273     13274     13271     13270     13273     13275
     13271     13270     13273     13276     13272     13270     13273     13274
     13272     13270     13273     13275     13272     13270     13273     13276
     13273     13276     13279     13280     13273     13276     13279     13281
     13273     13276     13279     13282     13274     13273     13276     13277
     13274     13273     13276     13278     13274     13273     13276     13279
     13275     13273     13276     13277     13275     13273     13276     13278
     13275     13273     13276     13279     13276     13279     13282     13283
     13276     13279     13282     13284     13276     13279     13282     13285
     13277     13276     13279     13280     13277     13276     13279     13281
     13277     13276     13279     13282     13278     13276     13279     13280
     13278     13276     13279     13281     13278     13276     13279     13282
     13279     13282     13285     13286     13279     13282     13285     13287
     13279     13282     13285     13288     13280     13279     13282     13283
     13280     13279     13282     13284     13280     13279     13282     13285
     13281     13279     13282     13283     13281     13279     13282     13284
     13281     13279     13282     13285     13282     13285     13288     13289
     13282     13285     13288     13290     13282     13285     13288     13291
     13283     13282     13285     13286     13283     13282     13285     13287
     13283     13282     13285     13288     13284     13282     13285     13286
     13284     13282     13285     13287     13284     13282     13285     13288
     13286     13285     13288     13289     13286     13285     13288     13290
     13286     13285     13288     13291     13287     13285     13288     13289
     13287     13285     13288     13290     13287     13285     13288     13291
     13292     13295     13298     13299     13292     13295     13298     13300
     13292     13295     13298     13301     13293     13292     13295     13296
     13293     13292     13295     13297     13293     13292     13295     13298
     13294     13292     13295     13296     13294     13292     13295     13297
     13294     13292     13295     13298     13295     13298     13301     13302
     13295     13298     13301     13303     13295     13298     13301     13304
     13296     13295     13298     13299     13296     13295     13298     13300
     13296     13295     13298     13301     13297     13295     13298     13299
     13297     13295     13298     13300     13297     13295     13298     13301
     13298     13301     13304     13305     13298     13301     13304     13306
     13298     13301     13304     13307     13299     13298     13301     13302
     13299     13298     13301     13303     13299     13298     13301     13304
     13300     13298     13301     13302     13300     13298     13301     13303
     13300     13298     13301     13304     13301     13304     13307     13308
     13301     13304     13307     13309     13301     13304     13307     13310
     13302     13301     13304     13305     13302     13301     13304     13306
     13302     13301     13304     13307     13303     13301     13304     13305
     13303     13301     13304     13306     13303     13301     13304     13307
     13304     13307     13310     13311     13304     13307     13310     13312
     13304     13307     13310     13313     13305     13304     13307     13308
     13305     13304     13307     13309     13305     13304     13307     13310
     13306     13304     13307     13308     13306     13304     13307     13309
     13306     13304     13307     13310     13307     13310     13313     13314
     13307     13310     13313     13315     13307     13310     13313     13316
     13308     13307     13310     13311     13308     13307     13310     13312
     13308     13307     13310     13313     13309     13307     13310     13311
     13309     13307     13310     13312     13309     13307     13310     13313
     13310     13313     13316     13317     13310     13313     13316     13318
     13310     13313     13316     13319     13311     13310     13313     13314
     13311     13310     13313     13315     13311     13310     13313     13316
     13312     13310     13313     13314     13312     13310     13313     13315
     13312     13310     13313     13316     13313     13316     13319     13320
     13313     13316     13319     13321     13313     13316     13319     13322
     13314     13313     13316     13317     13314     13313     13316     13318
     13314     13313     13316     13319     13315     13313     13316     13317
     13315     13313     13316     13318     13315     13313     13316     13319
     13316     13319     13322     13323     13316     13319     13322     13324
     13316     13319     13322     13325     13317     13316     13319     13320
     13317     13316     13319     13321     13317     13316     13319     13322
     13318     13316     13319     13320     13318     13316     13319     13321
     13318     13316     13319     13322     13319     13322     13325     13326
     13319     13322     13325     13327     13319     13322     13325     13328
     13320     13319     13322     13323     13320     13319     13322     13324
     13320     13319     13322     13325     13321     13319     13322     13323
     13321     13319     13322     13324     13321     13319     13322     13325
     13322     13325     13328     13329     13322     13325     13328     13330
     13322     13325     13328     13331     13323     13322     13325     13326
     13323     13322     13325     13327     13323     13322     13325     13328
     13324     13322     13325     13326     13324     13322     13325     13327
     13324     13322     13325     13328     13325     13328     13331     13332
     13325     13328     13331     13333     13325     13328     13331     13334
     13326     13325     13328     13329     13326     13325     13328     13330
     13326     13325     13328     13331     13327     13325     13328     13329
     13327     13325     13328     13330     13327     13325     13328     13331
     13329     13328     13331     13332     13329     13328     13331     13333
     13329     13328     13331     13334     13330     13328     13331     13332
     13330     13328     13331     13333     13330     13328     13331     13334
     13335     13336     13351     13352     13335     13336     13351     13353
     13335     13336     13351     13357     13336     13335     13339     13340
     13336     13335     13339     13341     13336     13335     13339     13342
     13336     13335     13343     13344     13336     13335     13343     13345
     13336     13335     13343     13346     13336     13335     13347     13348
     13336     13335     13347     13349     13336     13335     13347     13350
     13336     13351     13357     13354     13337     13336     13335     13339
     13337     13336     13335     13343     13337     13336     13335     13347
     13337     13336     13351     13352     13337     13336     13351     13353
     13337     13336     13351     13357     13338     13336     13335     13339
     13338     13336     13335     13343     13338     13336     13335     13347
     13338     13336     13351     13352     13338     13336     13351     13353
     13338     13336     13351     13357     13339     13335     13336     13351
     13339     13335     13343     13344     13339     13335     13343     13345
     13339     13335     13343     13346     13339     13335     13347     13348
     13339     13335     13347     13349     13339     13335     13347     13350
     13340     13339     13335     13343     13340     13339     13335     13347
     13341     13339     13335     13343     13341     13339     13335     13347
     13342     13339     13335     13343     13342     13339     13335     13347
     13343     13335     13336     13351     13343     13335     13347     13348
     13343     13335     13347     13349     13343     13335     13347     13350
     13344     13343     13335     13347     13345     13343     13335     13347
     13346     13343     13335     13347     13347     13335     13336     13351
     13351     13357     13354     13355     13351     13357     13354     13356
     13351     13357     13354     13358     13352     13351     13357     13354
     13353     13351     13357     13354     13354     13358     13359     13360
     13354     13358     13359     13361     13354     13358     13359     13362
     13355     13354     13358     13359     13356     13354     13358     13359
     13357     13354     13358     13359     13358     13359     13362     13363
     13358     13359     13362     13364     13358     13359     13362     13370
     13359     13362     13364     13365     13359     13362     13370     13371
     13359     13362     13370     13372     13359     13362     13370     13373
     13360     13359     13362     13363     13360     13359     13362     13364
     13360     13359     13362     13370     13361     13359     13362     13363
     13361     13359     13362     13364     13361     13359     13362     13370
     13362     13364     13365     13366     13362     13364     13365     13367
     13362     13370     13373     13374     13363     13362     13364     13365
     13363     13362     13370     13371     13363     13362     13370     13372
     13363     13362     13370     13373     13364     13362     13370     13371
     13364     13362     13370     13372     13364     13362     13370     13373
     13364     13365     13367     13368     13364     13365     13367     13369
     13364     13365     13367     13379     13365     13364     13362     13370
     13365     13367     13379     13380     13365     13367     13379     13381
     13365     13367     13379     13382     13366     13365     13367     13368
     13366     13365     13367     13369     13366     13365     13367     13379
     13367     13379     13382     13383     13367     13379     13382     13384
     13367     13379     13382     13385     13368     13367     13379     13380
     13368     13367     13379     13381     13368     13367     13379     13382
     13369     13367     13379     13380     13369     13367     13379     13381
     13369     13367     13379     13382     13370     13373     13374     13375
     13370     13373     13374     13376     13371     13370     13373     13374
     13372     13370     13373     13374     13373     13374     13376     13377
     13373     13374     13376     13378     13373     13374     13376     13426
     13374     13376     13426     13427     13374     13376     13426     13428
     13374     13376     13426     13429     13375     13374     13376     13377
     13375     13374     13376     13378     13375     13374     13376     13426
     13376     13426     13429     13430     13376     13426     13429     13431
     13376     13426     13429     13432     13377     13376     13426     13427
     13377     13376     13426     13428     13377     13376     13426     13429
     13378     13376     13426     13427     13378     13376     13426     13428
     13378     13376     13426     13429     13379     13382     13385     13386
     13379     13382     13385     13387     13379     13382     13385     13388
     13380     13379     13382     13383     13380     13379     13382     13384
     13380     13379     13382     13385     13381     13379     13382     13383
     13381     13379     13382     13384     13381     13379     13382     13385
     13382     13385     13388     13389     13382     13385     13388     13390
     13382     13385     13388     13391     13383     13382     13385     13386
     13383     13382     13385     13387     13383     13382     13385     13388
     13384     13382     13385     13386     13384     13382     13385     13387
     13384     13382     13385     13388     13385     13388     13391     13392
     13385     13388     13391     13393     13385     13388     13391     13394
     13386     13385     13388     13389     13386     13385     13388     13390
     13386     13385     13388     13391     13387     13385     13388     13389
     13387     13385     13388     13390     13387     13385     13388     13391
     13388     13391     13394     13395     13388     13391     13394     13396
     13388     13391     13394     13397     13389     13388     13391     13392
     13389     13388     13391     13393     13389     13388     13391     13394
     13390     13388     13391     13392     13390     13388     13391     13393
     13390     13388     13391     13394     13391     13394     13397     13398
     13391     13394     13397     13399     13392     13391     13394     13395
     13392     13391     13394     13396     13392     13391     13394     13397
     13393     13391     13394     13395     13393     13391     13394     13396
     13393     13391     13394     13397     13394     13397     13399     13400
     13394     13397     13399     13401     13395     13394     13397     13398
     13395     13394     13397     13399     13396     13394     13397     13398
     13396     13394     13397     13399     13397     13399     13401     13402
     13397     13399     13401     13403     13397     13399     13401     13404
     13398     13397     13399     13400     13398     13397     13399     13401
     13399     13401     13404     13405     13399     13401     13404     13406
     13399     13401     13404     13407     13400     13399     13401     13402
     13400     13399     13401     13403     13400     13399     13401     13404
     13401     13404     13407     13408     13401     13404     13407     13409
     13401     13404     13407     13410     13402     13401     13404     13405
     13402     13401     13404     13406     13402     13401     13404     13407
     13403     13401     13404     13405     13403     13401     13404     13406
     13403     13401     13404     13407     13404     13407     13410     13411
     13404     13407     13410     13412     13404     13407     13410     13413
     13405     13404     13407     13408     13405     13404     13407     13409
     13405     13404     13407     13410     13406     13404     13407     13408
     13406     13404     13407     13409     13406     13404     13407     13410
     13407     13410     13413     13414     13407     13410     13413     13415
     13407     13410     13413     13416     13408     13407     13410     13411
     13408     13407     13410     13412     13408     13407     13410     13413
     13409     13407     13410     13411     13409     13407     13410     13412
     13409     13407     13410     13413     13410     13413     13416     13417
     13410     13413     13416     13418     13410     13413     13416     13419
     13411     13410     13413     13414     13411     13410     13413     13415
     13411     13410     13413     13416     13412     13410     13413     13414
     13412     13410     13413     13415     13412     13410     13413     13416
     13413     13416     13419     13420     13413     13416     13419     13421
     13413     13416     13419     13422     13414     13413     13416     13417
     13414     13413     13416     13418     13414     13413     13416     13419
     13415     13413     13416     13417     13415     13413     13416     13418
     13415     13413     13416     13419     13416     13419     13422     13423
     13416     13419     13422     13424     13416     13419     13422     13425
     13417     13416     13419     13420     13417     13416     13419     13421
     13417     13416     13419     13422     13418     13416     13419     13420
     13418     13416     13419     13421     13418     13416     13419     13422
     13420     13419     13422     13423     13420     13419     13422     13424
     13420     13419     13422     13425     13421     13419     13422     13423
     13421     13419     13422     13424     13421     13419     13422     13425
     13426     13429     13432     13433     13426     13429     13432     13434
     13426     13429     13432     13435     13427     13426     13429     13430
     13427     13426     13429     13431     13427     13426     13429     13432
     13428     13426     13429     13430     13428     13426     13429     13431
     13428     13426     13429     13432     13429     13432     13435     13436
     13429     13432     13435     13437     13429     13432     13435     13438
     13430     13429     13432     13433     13430     13429     13432     13434
     13430     13429     13432     13435     13431     13429     13432     13433
     13431     13429     13432     13434     13431     13429     13432     13435
     13432     13435     13438     13439     13432     13435     13438     13440
     13432     13435     13438     13441     13433     13432     13435     13436
     13433     13432     13435     13437     13433     13432     13435     13438
     13434     13432     13435     13436     13434     13432     13435     13437
     13434     13432     13435     13438     13435     13438     13441     13442
     13435     13438     13441     13443     13435     13438     13441     13444
     13436     13435     13438     13439     13436     13435     13438     13440
     13436     13435     13438     13441     13437     13435     13438     13439
     13437     13435     13438     13440     13437     13435     13438     13441
     13438     13441     13444     13445     13438     13441     13444     13446
     13438     13441     13444     13447     13439     13438     13441     13442
     13439     13438     13441     13443     13439     13438     13441     13444
     13440     13438     13441     13442     13440     13438     13441     13443
     13440     13438     13441     13444     13441     13444     13447     13448
     13441     13444     13447     13449     13441     13444     13447     13450
     13442     13441     13444     13445     13442     13441     13444     13446
     13442     13441     13444     13447     13443     13441     13444     13445
     13443     13441     13444     13446     13443     13441     13444     13447
     13444     13447     13450     13451     13444     13447     13450     13452
     13444     13447     13450     13453     13445     13444     13447     13448
     13445     13444     13447     13449     13445     13444     13447     13450
     13446     13444     13447     13448     13446     13444     13447     13449
     13446     13444     13447     13450     13447     13450     13453     13454
     13447     13450     13453     13455     13447     13450     13453     13456
     13448     13447     13450     13451     13448     13447     13450     13452
     13448     13447     13450     13453     13449     13447     13450     13451
     13449     13447     13450     13452     13449     13447     13450     13453
     13450     13453     13456     13457     13450     13453     13456     13458
     13450     13453     13456     13459     13451     13450     13453     13454
     13451     13450     13453     13455     13451     13450     13453     13456
     13452     13450     13453     13454     13452     13450     13453     13455
     13452     13450     13453     13456     13453     13456     13459     13460
     13453     13456     13459     13461     13453     13456     13459     13462
     13454     13453     13456     13457     13454     13453     13456     13458
     13454     13453     13456     13459     13455     13453     13456     13457
     13455     13453     13456     13458     13455     13453     13456     13459
     13456     13459     13462     13463     13456     13459     13462     13464
     13456     13459     13462     13465     13457     13456     13459     13460
     13457     13456     13459     13461     13457     13456     13459     13462
     13458     13456     13459     13460     13458     13456     13459     13461
     13458     13456     13459     13462     13459     13462     13465     13466
     13459     13462     13465     13467     13459     13462     13465     13468
     13460     13459     13462     13463     13460     13459     13462     13464
     13460     13459     13462     13465     13461     13459     13462     13463
     13461     13459     13462     13464     13461     13459     13462     13465
     13463     13462     13465     13466     13463     13462     13465     13467
     13463     13462     13465     13468     13464     13462     13465     13466
     13464     13462     13465     13467     13464     13462     13465     13468

       324 !NIMPHI: impropers
         8         5        10         9        10         8        12        11
        27        12        29        28        29        27        31        30
        34        31        36        35        36        34        38        37
        44        38        46        45        46        44        48        47
        60        48        62        61        62        60        64        63
        79        64        81        80        81        79        83        82
       101        83       103       102       103       101       105       104
       117       105       119       118       119       117       121       120
       136       121       138       137       138       136       140       139
       150       140       152       151       152       150       154       153
       164       154       166       165       166       164       168       167
       171       168       173       172       173       171       175       174
       190       175       192       191       192       190       196       193
       204       196       206       205       206       204       208       207
       214       208       216       215       216       214       218       217
       233       218       235       234       235       233       237       236
       252       237       254       253       254       252       256       255
       263       256       265       264       265       263       267       266
       287       267       289       288       289       287       291       290
       306       291       308       307       308       306       310       309
       328       310       330       329       330       328       332       331
       352       332       354       353       345       346       349       343
       346       347       348       345       349       350       351       345
       354       352       356       355       374       356       376       375
       376       374       378       377       398       378       400       399
       391       392       395       389       392       393       394       391
       395       396       397       391       400       398       402       401
       415       402       417       416       410       412       407       411
       410       407       412       411       412       410       413       414
       412       410       414       413       417       415       419       418
       427       429       424       428       427       424       429       428
       429       427       430       431       429       427       431       430
       432       434       419       433       432       419       434       433
       434       432       435       436       434       432       436       435
       444       441       446       445       446       444       448       447
       463       448       465       464       465       463       467       466
       470       467       472       471       472       470       474       473
       480       474       482       481       482       480       484       483
       496       484       498       497       498       496       500       499
       515       500       517       516       517       515       519       518
       537       519       539       538       539       537       541       540
       553       541       555       554       555       553       557       556
       572       557       574       573       574       572       576       575
       586       576       588       587       588       586       590       589
       600       590       602       601       602       600       604       603
       607       604       609       608       609       607       611       610
       626       611       628       627       628       626       632       629
       640       632       642       641       642       640       644       643
       650       644       652       651       652       650       654       653
       669       654       671       670       671       669       673       672
       688       673       690       689       690       688       692       691
       699       692       701       700       701       699       703       702
       723       703       725       724       725       723       727       726
       742       727       744       743       744       742       746       745
       764       746       766       765       766       764       768       767
       788       768       790       789       781       782       785       779
       782       783       784       781       785       786       787       781
       790       788       792       791       810       792       812       811
       812       810       814       813       834       814       836       835
       827       828       831       825       828       829       830       827
       831       832       833       827       836       834       838       837
       851       838       853       852       846       848       843       847
       846       843       848       847       848       846       849       850
       848       846       850       849       853       851       855       854
       863       865       860       864       863       860       865       864
       865       863       866       867       865       863       867       866
       868       870       855       869       868       855       870       869
       870       868       871       872       870       868       872       871
       903       902       905       904       912       911       914       913
      1037      1036      1039      1038      1046      1045      1048      1047
      1171      1170      1173      1172      1180      1179      1182      1181
      1305      1304      1307      1306      1314      1313      1316      1315
      1439      1438      1441      1440      1448      1447      1450      1449
      1573      1572      1575      1574      1582      1581      1584      1583
      1707      1706      1709      1708      1716      1715      1718      1717
      1841      1840      1843      1842      1850      1849      1852      1851
      1975      1974      1977      1976      1984      1983      1986      1985
      2109      2108      2111      2110      2118      2117      2120      2119
      2243      2242      2245      2244      2252      2251      2254      2253
      2377      2376      2379      2378      2386      2385      2388      2387
      2511      2510      2513      2512      2520      2519      2522      2521
      2645      2644      2647      2646      2654      2653      2656      2655
      2779      2778      2781      2780      2788      2787      2790      2789
      2913      2912      2915      2914      2922      2921      2924      2923
      3047      3046      3049      3048      3056      3055      3058      3057
      3181      3180      3183      3182      3190      3189      3192      3191
      3315      3314      3317      3316      3324      3323      3326      3325
      3449      3448      3451      3450      3458      3457      3460      3459
      3583      3582      3585      3584      3592      3591      3594      3593
      3717      3716      3719      3718      3726      3725      3728      3727
      3851      3850      3853      3852      3860      3859      3862      3861
      3985      3984      3987      3986      3994      3993      3996      3995
      4119      4118      4121      4120      4128      4127      4130      4129
      4253      4252      4255      4254      4262      4261      4264      4263
      4387      4386      4389      4388      4396      4395      4398      4397
      4521      4520      4523      4522      4530      4529      4532      4531
      4655      4654      4657      4656      4664      4663      4666      4665
      4789      4788      4791      4790      4798      4797      4800      4799
      4923      4922      4925      4924      4932      4931      4934      4933
      5057      5056      5059      5058      5066      5065      5068      5067
      5191      5190      5193      5192      5200      5199      5202      5201
      5325      5324      5327      5326      5334      5333      5336      5335
      5459      5458      5461      5460      5468      5467      5470      5469
      5593      5592      5595      5594      5602      5601      5604      5603
      5727      5726      5729      5728      5736      5735      5738      5737
      5861      5860      5863      5862      5870      5869      5872      5871
      5995      5994      5997      5996      6004      6003      6006      6005
      6129      6128      6131      6130      6138      6137      6140      6139
      6263      6262      6265      6264      6272      6271      6274      6273
      6397      6396      6399      6398      6406      6405      6408      6407
      6531      6530      6533      6532      6540      6539      6542      6541
      6665      6664      6667      6666      6674      6673      6676      6675
      6799      6798      6801      6800      6808      6807      6810      6809
      6933      6932      6935      6934      6942      6941      6944      6943
      7067      7066      7069      7068      7076      7075      7078      7077
      7201      7200      7203      7202      7210      7209      7212      7211
      7335      7334      7337      7336      7344      7343      7346      7345
      7469      7468      7471      7470      7478      7477      7480      7479
      7603      7602      7605      7604      7612      7611      7614      7613
      7737      7736      7739      7738      7746      7745      7748      7747
      7871      7870      7873      7872      7880      7879      7882      7881
      8005      8004      8007      8006      8014      8013      8016      8015
      8139      8138      8141      8140      8148      8147      8150      8149
      8273      8272      8275      8274      8282      8281      8284      8283
      8407      8406      8409      8408      8416      8415      8418      8417
      8541      8540      8543      8542      8550      8549      8552      8551
      8675      8674      8677      8676      8684      8683      8686      8685
      8809      8808      8811      8810      8818      8817      8820      8819
      8943      8942      8945      8944      8952      8951      8954      8953
      9077      9076      9079      9078      9086      9085      9088      9087
      9211      9210      9213      9212      9220      9219      9222      9221
      9345      9344      9347      9346      9354      9353      9356      9355
      9479      9478      9481      9480      9488      9487      9490      9489
      9613      9612      9615      9614      9622      9621      9624      9623
      9747      9746      9749      9748      9756      9755      9758      9757
      9881      9880      9883      9882      9890      9889      9892      9891
     10015     10014     10017     10016     10024     10023     10026     10025
     10149     10148     10151     10150     10158     10157     10160     10159
     10283     10282     10285     10284     10292     10291     10294     10293
     10417     10416     10419     10418     10426     10425     10428     10427
     10551     10550     10553     10552     10560     10559     10562     10561
     10685     10684     10687     10686     10694     10693     10696     10695
     10819     10818     10821     10820     10828     10827     10830     10829
     10953     10952     10955     10954     10962     10961     10964     10963
     11087     11086     11089     11088     11096     11095     11098     11097
     11221     11220     11223     11222     11230     11229     11232     11231
     11355     11354     11357     11356     11364     11363     11366     11365
     11489     11488     11491     11490     11498     11497     11500     11499
     11623     11622     11625     11624     11632     11631     11634     11633
     11757     11756     11759     11758     11766     11765     11768     11767
     11891     11890     11893     11892     11900     11899     11902     11901
     12025     12024     12027     12026     12034     12033     12036     12035
     12159     12158     12161     12160     12168     12167     12170     12169
     12293     12292     12295     12294     12302     12301     12304     12303
     12427     12426     12429     12428     12436     12435     12438     12437
     12561     12560     12563     12562     12570     12569     12572     12571
     12695     12694     12697     12696     12704     12703     12706     12705
     12829     12828     12831     12830     12838     12837     12840     12839
     12963     12962     12965     12964     12972     12971     12974     12973
     13097     13096     13099     13098     13106     13105     13108     13107
     13231     13230     13233     13232     13240     13239     13242     13241
     13365     13364     13367     13366     13374     13373     13376     13375

       112 !NDON: donors
         1         2         1         3         1         4        10        11
        29        30        36        37        46        47        62        63
        81        82        97        98        97        99        97       100
       103       104       119       120       138       139       144       145
       152       153       158       159       166       167       173       174
       206       207       216       217       235       236       254       255
       261       262       265       266       275       276       289       290
       308       309       324       325       324       326       324       327
       330       331       343       344       346       347       346       348
       349       350       349       351       354       355       370       371
       370       372       370       373       376       377       389       390
       392       393       392       394       395       396       395       397
       400       401       412       413       412       414       417       418
       429       430       429       431       434       435       434       436
       437       438       437       439       437       440       446       447
       465       466       472       473       482       483       498       499
       517       518       533       534       533       535       533       536
       539       540       555       556       574       575       580       581
       588       589       594       595       602       603       609       610
       642       643       652       653       671       672       690       691
       697       698       701       702       711       712       725       726
       744       745       760       761       760       762       760       763
       766       767       779       780       782       783       782       784
       785       786       785       787       790       791       806       807
       806       808       806       809       812       813       825       826
       828       829       828       830       831       832       831       833
       836       837       848       849       848       850       853       854
       865       866       865       867       870       871       870       872

        62 !NACC: acceptors
         9         8        28        27        35        34        45        44
        61        60        80        79       102       101       118       117
       137       136       144         0       151       150       158         0
       165       164       172       171       191       190       205       204
       215       214       234       233       253       252       261         0
       264       263       288       287       307       306       329       328
       353       352       375       374       399       398       411       410
       416       415       428       427       433       432       445       444
       464       463       471       470       481       480       497       496
       516       515       538       537       554       553       573       572
       580         0       587       586       594         0       601       600
       608       607       627       626       641       640       651       650
       670       669       689       688       697         0       700       699
       724       723       743       742       765       764       789       788
       811       810       835       834       847       846       852       851
       864       863       869       868

         0 !NNB

         0         0         0         0         0         0         0         0
         0         0         0         0         0         0         0         0
         0         0         0         0         0         0         0         0
         0         0         0         0         0         0         0         0
         0         0         0         0         0         0         0         0
         0         0         0         0         0         0         0         0
         0         0         0         0         0         0         0         0
         0         0         0         0         0         0         0         0
         0         0         0         0         0         0         0         0
         0         0         0         0         0         0         0         0
         0         0         0         0         0         0         0         0
         0         0         0         0         0         0         0         0
         0         0         0         0         0         0         0         0
         0         0         0         0         0         0         0         0
         0         0         0         0         0         0         0         0
         0         0         0         0         0         0         0         0
         0         0         0         0         0         0         0         0
         0         0         0         0         0         0         0         0
         0         0         0         0         0         0         0         0
         0         0         0         0         0         0         0         0
         0         0         0         0         0         0         0         0
         0         0         0         0         0         0         0         0
         0         0         0         0         0         0         0         0
         0         0         0         0         0         0         0         0
         0         0         0         0         0         0         0         0
         0         0         0         0         0         0         0         0
         0         0         0         0         0         0         0         0
         0         0         0         0         0         0         0         0
         0         0         0         0         0         0         0         0
         0         0         0         0         0         0         0         0
         0         0         0         0         0         0         0         0
         0         0         0         0         0         0         0         0
         0         0         0         0         0         0         0         0
         0         0         0         0         0         0         0         0
         0         0         0         0         0         0         0         0
         0         0         0         0         0         0         0         0
         0         0         0         0         0         0         0         0
         0         0         0         0         0         0         0         0
         0         0         0         0         0         0         0         0
         0         0         0         0         0         0         0         0
         0         0         0         0         0         0         0         0
         0         0         0         0         0         0         0         0
         0         0         0         0         0         0         0         0
         0         0         0         0         0         0         0         0
         0         0         0         0         0         0         0         0
         0         0         0         0         0         0         0         0
         0         0         0         0         0         0         0         0
         0         0         0         0         0         0         0         0
         0         0         0         0         0         0         0         0
         0         0         0         0         0         0         0         0
         0         0         0         0         0         0         0         0
         0         0         0         0         0         0         0         0
         0         0         0         0         0         0         0         0
         0         0         0         0         0         0         0         0
         0         0         0         0         0         0         0         0
         0         0         0         0         0         0         0         0
         0         0         0         0         0         0         0         0
         0         0         0         0         0         0         0         0
         0         0         0         0         0         0         0         0
         0         0         0         0         0         0         0         0
         0         0         0         0         0         0         0         0
         0         0         0         0         0         0         0         0
         0         0         0         0         0         0         0         0
         0         0         0         0         0         0         0         0
         0         0         0         0         0         0         0         0
         0         0         0         0         0         0         0         0
         0         0         0         0         0         0         0         0
         0         0         0         0         0         0         0         0
         0         0         0         0         0         0         0         0
         0         0         0         0         0         0         0         0
         0         0         0         0         0         0         0         0
         0         0         0         0         0         0         0         0
         0         0         0         0         0         0         0         0
         0         0         0         0         0         0         0         0
         0         0         0         0         0         0         0         0
         0         0         0         0         0         0         0         0
         0         0         0         0         0         0         0         0
         0         0         0         0         0         0         0         0
         0         0         0         0         0         0         0         0
         0         0         0         0         0         0         0         0
         0         0         0         0         0         0         0         0
         0         0         0         0         0         0         0         0
         0         0         0         0         0         0         0         0
         0         0         0         0         0         0         0         0
         0         0         0         0         0         0         0         0
         0         0         0         0         0         0         0         0
         0         0         0         0         0         0         0         0
         0         0         0         0         0         0         0         0
         0         0         0         0         0         0         0         0
         0         0         0         0         0         0         0         0
         0         0         0         0         0         0         0         0
         0         0         0         0         0         0         0         0
         0         0         0         0         0         0         0         0
         0         0         0         0         0         0         0         0
         0         0         0         0         0         0         0         0
         0         0         0         0         0         0         0         0
         0         0         0         0         0         0         0         0
         0         0         0         0         0         0         0         0
         0         0         0         0         0         0         0         0
         0         0         0         0         0         0         0         0
         0         0         0         0         0         0         0         0
         0         0         0         0         0         0         0         0
         0         0         0         0         0         0         0         0
         0         0         0         0         0         0         0         0
         0         0         0         0         0         0         0         0
         0         0         0         0         0         0         0         0
         0         0         0         0         0         0         0         0
         0         0         0         0         0         0         0         0
         0         0         0         0         0         0         0         0
         0         0         0         0         0         0         0         0
         0         0         0         0         0         0         0         0
         0         0         0         0         0         0         0         0
         0         0         0         0         0         0         0         0
         0         0         0         0         0         0         0         0
         0         0         0         0         0         0         0         0
         0         0         0         0         0         0         0         0
         0         0         0         0         0         0         0         0
         0         0         0         0         0         0         0         0
         0         0         0         0         0         0         0         0
         0         0         0         0         0         0         0         0
         0         0         0         0         0         0         0         0
         0         0         0         0         0         0         0         0
         0         0         0         0         0         0         0         0
         0         0         0         0         0         0         0         0
         0         0         0         0         0         0         0         0
         0         0         0         0         0         0         0         0
         0         0         0         0         0         0         0         0
         0         0         0         0         0         0         0         0
         0         0         0         0         0         0         0         0
         0         0         0         0         0         0         0         0
         0         0         0         0         0         0         0         0
         0         0         0         0         0         0         0         0
         0         0         0         0         0         0         0         0
         0         0         0         0         0         0         0         0
         0         0         0         0         0         0         0         0
         0         0         0         0         0         0         0         0
         0         0         0         0         0         0         0         0
         0         0         0         0         0         0         0         0
         0         0         0         0         0         0         0         0
         0         0         0         0         0         0         0         0
         0         0         0         0         0         0         0         0
         0         0         0         0         0         0         0         0
         0         0         0         0         0         0         0         0
         0         0         0         0         0         0         0         0
         0         0         0         0         0         0         0         0
         0         0         0         0         0         0         0         0
         0         0         0         0         0         0         0         0
         0         0         0         0         0         0         0         0
         0         0         0         0         0         0         0         0
         0         0         0         0         0         0         0         0
         0         0         0         0         0         0         0         0
         0         0         0         0         0         0         0         0
         0         0         0         0         0         0         0         0
         0         0         0         0         0         0         0         0
         0         0         0         0         0         0         0         0
         0         0         0         0         0         0         0         0
         0         0         0         0         0         0         0         0
         0         0         0         0         0         0         0         0
         0         0         0         0         0         0         0         0
         0         0         0         0         0         0         0         0
         0         0         0         0         0         0         0         0
         0         0         0         0         0         0         0         0
         0         0         0         0         0         0         0         0
         0         0         0         0         0         0         0         0
         0         0         0         0         0         0         0         0
         0         0         0         0         0         0         0         0
         0         0         0         0         0         0         0         0
         0         0         0         0         0         0         0         0
         0         0         0         0         0         0         0         0
         0         0         0         0         0         0         0         0
         0         0         0         0         0         0         0         0
         0         0         0         0         0         0         0         0
         0         0         0         0         0         0         0         0
         0         0         0         0         0         0         0         0
         0         0         0         0         0         0         0         0
         0         0         0         0         0         0         0         0
         0         0         0         0         0         0         0         0
         0         0         0         0         0         0         0         0
         0         0         0         0         0         0         0         0
         0         0         0         0         0         0         0         0
         0         0         0         0         0         0         0         0
         0         0         0         0         0         0         0         0
         0         0         0         0         0         0         0         0
         0         0         0         0         0         0         0         0
         0         0         0         0         0         0         0         0
         0         0         0         0         0         0         0         0
         0         0         0         0         0         0         0         0
         0         0         0         0         0         0         0         0
         0         0         0         0         0         0         0         0
         0         0         0         0         0         0         0         0
         0         0         0         0         0         0         0         0
         0         0         0         0         0         0         0         0
         0         0         0         0         0         0         0         0
         0         0         0         0         0         0         0         0
         0         0         0         0         0         0         0         0
         0         0         0         0         0         0         0         0
         0         0         0         0         0         0         0         0
         0         0         0         0         0         0         0         0
         0         0         0         0         0         0         0         0
         0         0         0         0         0         0         0         0
         0         0         0         0         0         0         0         0
         0         0         0         0         0         0         0         0
         0         0         0         0         0         0         0         0
         0         0         0         0         0         0         0         0
         0         0         0         0         0         0         0         0
         0         0         0         0         0         0         0         0
         0         0         0         0         0         0         0         0
         0         0         0         0         0         0         0         0
         0         0         0         0         0         0         0         0
         0         0         0         0         0         0         0         0
         0         0         0         0         0         0         0         0
         0         0         0         0         0         0         0         0
         0         0         0         0         0         0         0         0
         0         0         0         0         0         0         0         0
         0         0         0         0         0         0         0         0
         0         0         0         0         0         0         0         0
         0         0         0         0         0         0         0         0
         0         0         0         0         0         0         0         0
         0         0         0         0         0         0         0         0
         0         0         0         0         0         0         0         0
         0         0         0         0         0         0         0         0
         0         0         0         0         0         0         0         0
         0         0         0         0         0         0         0         0
         0         0         0         0         0         0         0         0
         0         0         0         0         0         0         0         0
         0         0         0         0         0         0         0         0
         0         0         0         0         0         0         0         0
         0         0         0         0         0         0         0         0
         0         0         0         0         0         0         0         0
         0         0         0         0         0         0         0         0
         0         0         0         0         0         0         0         0
         0         0         0         0         0         0         0         0
         0         0         0         0         0         0         0         0
         0         0         0         0         0         0         0         0
         0         0         0         0         0         0         0         0
         0         0         0         0         0         0         0         0
         0         0         0         0         0         0         0         0
         0         0         0         0         0         0         0         0
         0         0         0         0         0         0         0         0
         0         0         0         0         0         0         0         0
         0         0         0         0         0         0         0         0
         0         0         0         0         0         0         0         0
         0         0         0         0         0         0         0         0
         0         0         0         0         0         0         0         0
         0         0         0         0         0         0         0         0
         0         0         0         0         0         0         0         0
         0         0         0         0         0         0         0         0
         0         0         0         0         0         0         0         0
         0         0         0         0         0         0         0         0
         0         0         0         0         0         0         0         0
         0         0         0         0         0         0         0         0
         0         0         0         0         0         0         0         0
         0         0         0         0         0         0         0         0
         0         0         0         0         0         0         0         0
         0         0         0         0         0         0         0         0
         0         0         0         0         0         0         0         0
         0         0         0         0         0         0         0         0
         0         0         0         0         0         0         0         0
         0         0         0         0         0         0         0         0
         0         0         0         0         0         0         0         0
         0         0         0         0         0         0         0         0
         0         0         0         0         0         0         0         0
         0         0         0         0         0         0         0         0
         0         0         0         0         0         0         0         0
         0         0         0         0         0         0         0         0
         0         0         0         0         0         0         0         0
         0         0         0         0         0         0         0         0
         0         0         0         0         0         0         0         0
         0         0         0         0         0         0         0         0
         0         0         0         0         0         0         0         0
         0         0         0         0         0         0         0         0
         0         0         0         0         0         0         0         0
         0         0         0         0         0         0         0         0
         0         0         0         0         0         0         0         0
         0         0         0         0         0         0         0         0
         0         0         0         0         0         0         0         0
         0         0         0         0         0         0         0         0
         0         0         0         0         0         0         0         0
         0         0         0         0         0         0         0         0
         0         0         0         0         0         0         0         0
         0         0         0         0         0         0         0         0
         0         0         0         0         0         0         0         0
         0         0         0         0         0         0         0         0
         0         0         0         0         0         0         0         0
         0         0         0         0         0         0         0         0
         0         0         0         0         0         0         0         0
         0         0         0         0         0         0         0         0
         0         0         0         0         0         0         0         0
         0         0         0         0         0         0         0         0
         0         0         0         0         0         0         0         0
         0         0         0         0         0         0         0         0
         0         0         0         0         0         0         0         0
         0         0         0         0         0         0         0         0
         0         0         0         0         0         0         0         0
         0         0         0         0         0         0         0         0
         0         0         0         0         0         0         0         0
         0         0         0         0         0         0         0         0
         0         0         0         0         0         0         0         0
         0         0         0         0         0         0         0         0
         0         0         0         0         0         0         0         0
         0         0         0         0         0         0         0         0
         0         0         0         0         0         0         0         0
         0         0         0         0         0         0         0         0
         0         0         0         0         0         0         0         0
         0         0         0         0         0         0         0         0
         0         0         0         0         0         0         0         0
         0         0         0         0         0         0         0         0
         0         0         0         0         0         0         0         0
         0         0         0         0         0         0         0         0
         0         0         0         0         0         0         0         0
         0         0         0         0         0         0         0         0
         0         0         0         0         0         0         0         0
         0         0         0         0         0         0         0         0
         0         0         0         0         0         0         0         0
         0         0         0         0         0         0         0         0
         0         0         0         0         0         0         0         0
         0         0         0         0         0         0         0         0
         0         0         0         0         0         0         0         0
         0         0         0         0         0         0         0         0
         0         0         0         0         0         0         0         0
         0         0         0         0         0         0         0         0
         0         0         0         0         0         0         0         0
         0         0         0         0         0         0         0         0
         0         0         0         0         0         0         0         0
         0         0         0         0         0         0         0         0
         0         0         0         0         0         0         0         0
         0         0         0         0         0         0         0         0
         0         0         0         0         0         0         0         0
         0         0         0         0         0         0         0         0
         0         0         0         0         0         0         0         0
         0         0         0         0         0         0         0         0
         0         0         0         0         0         0         0         0
         0         0         0         0         0         0         0         0
         0         0         0         0         0         0         0         0
         0         0         0         0         0         0         0         0
         0         0         0         0         0         0         0         0
         0         0         0         0         0         0         0         0
         0         0         0         0         0         0         0         0
         0         0         0         0         0         0         0         0
         0         0         0         0         0         0         0         0
         0         0         0         0         0         0         0         0
         0         0         0         0         0         0         0         0
         0         0         0         0         0         0         0         0
         0         0         0         0         0         0         0         0
         0         0         0         0         0         0         0         0
         0         0         0         0         0         0         0         0
         0         0         0         0         0         0         0         0
         0         0         0         0         0         0         0         0
         0         0         0         0         0         0         0         0
         0         0         0         0         0         0         0         0
         0         0         0         0         0         0         0         0
         0         0         0         0         0         0         0         0
         0         0         0         0         0         0         0         0
         0         0         0         0         0         0         0         0
         0         0         0         0         0         0         0         0
         0         0         0         0         0         0         0         0
         0         0         0         0         0         0         0         0
         0         0         0         0         0         0         0         0
         0         0         0         0         0         0         0         0
         0         0         0         0         0         0         0         0
         0         0         0         0         0         0         0         0
         0         0         0         0         0         0         0         0
         0         0         0         0         0         0         0         0
         0         0         0         0         0         0         0         0
         0         0         0         0         0         0         0         0
         0         0         0         0         0         0         0         0
         0         0         0         0         0         0         0         0
         0         0         0         0         0         0         0         0
         0         0         0         0         0         0         0         0
         0         0         0         0         0         0         0         0
         0         0         0         0         0         0         0         0
         0         0         0         0         0         0         0         0
         0         0         0         0         0         0         0         0
         0         0         0         0         0         0         0         0
         0         0         0         0         0         0         0         0
         0         0         0         0         0         0         0         0
         0         0         0         0         0         0         0         0
         0         0         0         0         0         0         0         0
         0         0         0         0         0         0         0         0
         0         0         0         0         0         0         0         0
         0         0         0         0         0         0         0         0
         0         0         0         0         0         0         0         0
         0         0         0         0         0         0         0         0
         0         0         0         0         0         0         0         0
         0         0         0         0         0         0         0         0
         0         0         0         0         0         0         0         0
         0         0         0         0         0         0         0         0
         0         0         0         0         0         0         0         0
         0         0         0         0         0         0         0         0
         0         0         0         0         0         0         0         0
         0         0         0         0         0         0         0         0
         0         0         0         0         0         0         0         0
         0         0         0         0         0         0         0         0
         0         0         0         0         0         0         0         0
         0         0         0         0         0         0         0         0
         0         0         0         0         0         0         0         0
         0         0         0         0         0         0         0         0
         0         0         0         0         0         0         0         0
         0         0         0         0         0         0         0         0
         0         0         0         0         0         0         0         0
         0         0         0         0         0         0         0         0
         0         0         0         0         0         0         0         0
         0         0         0         0         0         0         0         0
         0         0         0         0         0         0         0         0
         0         0         0         0         0         0         0         0
         0         0         0         0         0         0         0         0
         0         0         0         0         0         0         0         0
         0         0         0         0         0         0         0         0
         0         0         0         0         0         0         0         0
         0         0         0         0         0         0         0         0
         0         0         0         0         0         0         0         0
         0         0         0         0         0         0         0         0
         0         0         0         0         0         0         0         0
         0         0         0         0         0         0         0         0
         0         0         0         0         0         0         0         0
         0         0         0         0         0         0         0         0
         0         0         0         0         0         0         0         0
         0         0         0         0         0         0         0         0
         0         0         0         0         0         0         0         0
         0         0         0         0         0         0         0         0
         0         0         0         0         0         0         0         0
         0         0         0         0         0         0         0         0
         0         0         0         0         0         0         0         0
         0         0         0         0         0         0         0         0
         0         0         0         0         0         0         0         0
         0         0         0         0         0         0         0         0
         0         0         0         0         0         0         0         0
         0         0         0         0         0         0         0         0
         0         0         0         0         0         0         0         0
         0         0         0         0         0         0         0         0
         0         0         0         0         0         0         0         0
         0         0         0         0         0         0         0         0
         0         0         0         0         0         0         0         0
         0         0         0         0         0         0         0         0
         0         0         0         0         0         0         0         0
         0         0         0         0         0         0         0         0
         0         0         0         0         0         0         0         0
         0         0         0         0         0         0         0         0
         0         0         0         0         0         0         0         0
         0         0         0         0         0         0         0         0
         0         0         0         0         0         0         0         0
         0         0         0         0         0         0         0         0
         0         0         0         0         0         0         0         0
         0         0         0         0         0         0         0         0
         0         0         0         0         0         0         0         0
         0         0         0         0         0         0         0         0
         0         0         0         0         0         0         0         0
         0         0         0         0         0         0         0         0
         0         0         0         0         0         0         0         0
         0         0         0         0         0         0         0         0
         0         0         0         0         0         0         0         0
         0         0         0         0         0         0         0         0
         0         0         0         0         0         0         0         0
         0         0         0         0         0         0         0         0
         0         0         0         0         0         0         0         0
         0         0         0         0         0         0         0         0
         0         0         0         0         0         0         0         0
         0         0         0         0         0         0         0         0
         0         0         0         0         0         0         0         0
         0         0         0         0         0         0         0         0
         0         0         0         0         0         0         0         0
         0         0         0         0         0         0         0         0
         0         0         0         0         0         0         0         0
         0         0         0         0         0         0         0         0
         0         0         0         0         0         0         0         0
         0         0         0         0         0         0         0         0
         0         0         0         0         0         0         0         0
         0         0         0         0         0         0         0         0
         0         0         0         0         0         0         0         0
         0         0         0         0         0         0         0         0
         0         0         0         0         0         0         0         0
         0         0         0         0         0         0         0         0
         0         0         0         0         0         0         0         0
         0         0         0         0         0         0         0         0
         0         0         0         0         0         0         0         0
         0         0         0         0         0         0         0         0
         0         0         0         0         0         0         0         0
         0         0         0         0         0         0         0         0
         0         0         0         0         0         0         0         0
         0         0         0         0         0         0         0         0
         0         0         0         0         0         0         0         0
         0         0         0         0         0         0         0         0
         0         0         0         0         0         0         0         0
         0         0         0         0         0         0         0         0
         0         0         0         0         0         0         0         0
         0         0         0         0         0         0         0         0
         0         0         0         0         0         0         0         0
         0         0         0         0         0         0         0         0
         0         0         0         0         0         0         0         0
         0         0         0         0         0         0         0         0
         0         0         0         0         0         0         0         0
         0         0         0         0         0         0         0         0
         0         0         0         0         0         0         0         0
         0         0         0         0         0         0         0         0
         0         0         0         0         0         0         0         0
         0         0         0         0         0         0         0         0
         0         0         0         0         0         0         0         0
         0         0         0         0         0         0         0         0
         0         0         0         0         0         0         0         0
         0         0         0         0         0         0         0         0
         0         0         0         0         0         0         0         0
         0         0         0         0         0         0         0         0
         0         0         0         0         0         0         0         0
         0         0         0         0         0         0         0         0
         0         0         0         0         0         0         0         0
         0         0         0         0         0         0         0         0
         0         0         0         0         0         0         0         0
         0         0         0         0         0         0         0         0
         0         0         0         0         0         0         0         0
         0         0         0         0         0         0         0         0
         0         0         0         0         0         0         0         0
         0         0         0         0         0         0         0         0
         0         0         0         0         0         0         0         0
         0         0         0         0         0         0         0         0
         0         0         0         0         0         0         0         0
         0         0         0         0         0         0         0         0
         0         0         0         0         0         0         0         0
         0         0         0         0         0         0         0         0
         0         0         0         0         0         0         0         0
         0         0         0         0         0         0         0         0
         0         0         0         0         0         0         0         0
         0         0         0         0         0         0         0         0
         0         0         0         0         0         0         0         0
         0         0         0         0         0         0         0         0
         0         0         0         0         0         0         0         0
         0         0         0         0         0         0         0         0
         0         0         0         0         0         0         0         0
         0         0         0         0         0         0         0         0
         0         0         0         0         0         0         0         0
         0         0         0         0         0         0         0         0
         0         0         0         0         0         0         0         0
         0         0         0         0         0         0         0         0
         0         0         0         0         0         0         0         0
         0         0         0         0         0         0         0         0
         0         0         0         0         0         0         0         0
         0         0         0         0         0         0         0         0
         0         0         0         0         0         0         0         0
         0         0         0         0         0         0         0         0
         0         0         0         0         0         0         0         0
         0         0         0         0         0         0         0         0
         0         0         0         0         0         0         0         0
         0         0         0         0         0         0         0         0
         0         0         0         0         0         0         0         0
         0         0         0         0         0         0         0         0
         0         0         0         0         0         0         0         0
         0         0         0         0         0         0         0         0
         0         0         0         0         0         0         0         0
         0         0         0         0         0         0         0         0
         0         0         0         0         0         0         0         0
         0         0         0         0         0         0         0         0
         0         0         0         0         0         0         0         0
         0         0         0         0         0         0         0         0
         0         0         0         0         0         0         0         0
         0         0         0         0         0         0         0         0
         0         0         0         0         0         0         0         0
         0         0         0         0         0         0         0         0
         0         0         0         0         0         0         0         0
         0         0         0         0         0         0         0         0
         0         0         0         0         0         0         0         0
         0         0         0         0         0         0         0         0
         0         0         0         0         0         0         0         0
         0         0         0         0         0         0         0         0
         0         0         0         0         0         0         0         0
         0         0         0         0         0         0         0         0
         0         0         0         0         0         0         0         0
         0         0         0         0         0         0         0         0
         0         0         0         0         0         0         0         0
         0         0         0         0         0         0         0         0
         0         0         0         0         0         0         0         0
         0         0         0         0         0         0         0         0
         0         0         0         0         0         0         0         0
         0         0         0         0         0         0         0         0
         0         0         0         0         0         0         0         0
         0         0         0         0         0         0         0         0
         0         0         0         0         0         0         0         0
         0         0         0         0         0         0         0         0
         0         0         0         0         0         0         0         0
         0         0         0         0         0         0         0         0
         0         0         0         0         0         0         0         0
         0         0         0         0         0         0         0         0
         0         0         0         0         0         0         0         0
         0         0         0         0         0         0         0         0
         0         0         0         0         0         0         0         0
         0         0         0         0         0         0         0         0
         0         0         0         0         0         0         0         0
         0         0         0         0         0         0         0         0
         0         0         0         0         0         0         0         0
         0         0         0         0         0         0         0         0
         0         0         0         0         0         0         0         0
         0         0         0         0         0         0         0         0
         0         0         0         0         0         0         0         0
         0         0         0         0         0         0         0         0
         0         0         0         0         0         0         0         0
         0         0         0         0         0         0         0         0
         0         0         0         0         0         0         0         0
         0         0         0         0         0         0         0         0
         0         0         0         0         0         0         0         0
         0         0         0         0         0         0         0         0
         0         0         0         0         0         0         0         0
         0         0         0         0         0         0         0         0
         0         0         0         0         0         0         0         0
         0         0         0         0         0         0         0         0
         0         0         0         0         0         0         0         0
         0         0         0         0         0         0         0         0
         0         0         0         0         0         0         0         0
         0         0         0         0         0         0         0         0
         0         0         0         0         0         0         0         0
         0         0         0         0         0         0         0         0
         0         0         0         0         0         0         0         0
         0         0         0         0         0         0         0         0
         0         0         0         0         0         0         0         0
         0         0         0         0         0         0         0         0
         0         0         0         0         0         0         0         0
         0         0         0         0         0         0         0         0
         0         0         0         0         0         0         0         0
         0         0         0         0         0         0         0         0
         0         0         0         0         0         0         0         0
         0         0         0         0         0         0         0         0
         0         0         0         0         0         0         0         0
         0         0         0         0         0         0         0         0
         0         0         0         0         0         0         0         0
         0         0         0         0         0         0         0         0
         0         0         0         0         0         0         0         0
         0         0         0         0         0         0         0         0
         0         0         0         0         0         0         0         0
         0         0         0         0         0         0         0         0
         0         0         0         0         0         0         0         0
         0         0         0         0         0         0         0         0
         0         0         0         0         0         0         0         0
         0         0         0         0         0         0         0         0
         0         0         0         0         0         0         0         0
         0         0         0         0         0         0         0         0
         0         0         0         0         0         0         0         0
         0         0         0         0         0         0         0         0
         0         0         0         0         0         0         0         0
         0         0         0         0         0         0         0         0
         0         0         0         0         0         0         0         0
         0         0         0         0         0         0         0         0
         0         0         0         0         0         0         0         0
         0         0         0         0         0         0         0         0
         0         0         0         0         0         0         0         0
         0         0         0         0         0         0         0         0
         0         0         0         0         0         0         0         0
         0         0         0         0         0         0         0         0
         0         0         0         0         0         0         0         0
         0         0         0         0         0         0         0         0
         0         0         0         0         0         0         0         0
         0         0         0         0         0         0         0         0
         0         0         0         0         0         0         0         0
         0         0         0         0         0         0         0         0
         0         0         0         0         0         0         0         0
         0         0         0         0         0         0         0         0
         0         0         0         0         0         0         0         0
         0         0         0         0         0         0         0         0
         0         0         0         0         0         0         0         0
         0         0         0         0         0         0         0         0
         0         0         0         0         0         0         0         0
         0         0         0         0         0         0         0         0
         0         0         0         0         0         0         0         0
         0         0         0         0         0         0         0         0
         0         0         0         0         0         0         0         0
         0         0         0         0         0         0         0         0
         0         0         0         0         0         0         0         0
         0         0         0         0         0         0         0         0
         0         0         0         0         0         0         0         0
         0         0         0         0         0         0         0         0
         0         0         0         0         0         0         0         0
         0         0         0         0         0         0         0         0
         0         0         0         0         0         0         0         0
         0         0         0         0         0         0         0         0
         0         0         0         0         0         0         0         0
         0         0         0         0         0         0         0         0
         0         0         0         0         0         0         0         0
         0         0         0         0         0         0         0         0
         0         0         0         0         0         0         0         0
         0         0         0         0         0         0         0         0
         0         0         0         0         0         0         0         0
         0         0         0         0         0         0         0         0
         0         0         0         0         0         0         0         0
         0         0         0         0         0         0         0         0
         0         0         0         0         0         0         0         0
         0         0         0         0         0         0         0         0
         0         0         0         0         0         0         0         0
         0         0         0         0         0         0         0         0
         0         0         0         0         0         0         0         0
         0         0         0         0         0         0         0         0
         0         0         0         0         0         0         0         0
         0         0         0         0         0         0         0         0
         0         0         0         0         0         0         0         0
         0         0         0         0         0         0         0         0
         0         0         0         0         0         0         0         0
         0         0         0         0         0         0         0         0
         0         0         0         0         0         0         0         0
         0         0         0         0         0         0         0         0
         0         0         0         0         0         0         0         0
         0         0         0         0         0         0         0         0
         0         0         0         0         0         0         0         0
         0         0         0         0         0         0         0         0
         0         0         0         0         0         0         0         0
         0         0         0         0         0         0         0         0
         0         0         0         0         0         0         0         0
         0         0         0         0         0         0         0         0
         0         0         0         0         0         0         0         0
         0         0         0         0         0         0         0         0
         0         0         0         0         0         0         0         0
         0         0         0         0         0         0         0         0
         0         0         0         0         0         0         0         0
         0         0         0         0         0         0         0         0
         0         0         0         0         0         0         0         0
         0         0         0         0         0         0         0         0
         0         0         0         0         0         0         0         0
         0         0         0         0         0         0         0         0
         0         0         0         0         0         0         0         0
         0         0         0         0         0         0         0         0
         0         0         0         0         0         0         0         0
         0         0         0         0         0         0         0         0
         0         0         0         0         0         0         0         0
         0         0         0         0         0         0         0         0
         0         0         0         0         0         0         0         0
         0         0         0         0         0         0         0         0
         0         0         0         0         0         0         0         0
         0         0         0         0         0         0         0         0
         0         0         0         0         0         0         0         0
         0         0         0         0         0         0         0         0
         0         0         0         0         0         0         0         0
         0         0         0         0         0         0         0         0
         0         0         0         0         0         0         0         0
         0         0         0         0         0         0         0         0
         0         0         0         0         0         0         0         0
         0         0         0         0         0         0         0         0
         0         0         0         0         0         0         0         0
         0         0         0         0         0         0         0         0
         0         0         0         0         0         0         0         0
         0         0         0         0         0         0         0         0
         0         0         0         0         0         0         0         0
         0         0         0         0         0         0         0         0
         0         0         0         0         0         0         0         0
         0         0         0         0         0         0         0         0
         0         0         0         0         0         0         0         0
         0         0         0         0         0         0         0         0
         0         0         0         0         0         0         0         0
         0         0         0         0         0         0         0         0
         0         0         0         0         0         0         0         0
         0         0         0         0         0         0         0         0
         0         0         0         0         0         0         0         0
         0         0         0         0         0         0         0         0
         0         0         0         0         0         0         0         0
         0         0         0         0         0         0         0         0
         0         0         0         0         0         0         0         0
         0         0         0         0         0         0         0         0
         0         0         0         0         0         0         0         0
         0         0         0         0         0         0         0         0
         0         0         0         0         0         0         0         0
         0         0         0         0         0         0         0         0
         0         0         0         0         0         0         0         0
         0         0         0         0         0         0         0         0
         0         0         0         0         0         0         0         0
         0         0         0         0         0         0         0         0
         0         0         0         0         0         0         0         0
         0         0         0         0         0         0         0         0
         0         0         0         0         0         0         0         0
         0         0         0         0         0         0         0         0
         0         0         0         0         0         0         0         0
         0         0         0         0         0         0         0         0
         0         0         0         0         0         0         0         0
         0         0         0         0         0         0         0         0
         0         0         0         0         0         0         0         0
         0         0         0         0         0         0         0         0
         0         0         0         0         0         0         0         0
         0         0         0         0         0         0         0         0
         0         0         0         0         0         0         0         0
         0         0         0         0         0         0         0         0
         0         0         0         0         0         0         0         0
         0         0         0         0         0         0         0         0
         0         0         0         0         0         0         0         0
         0         0         0         0         0         0         0         0
         0         0         0         0         0         0         0         0
         0         0         0         0         0         0         0         0
         0         0         0         0         0         0         0         0
         0         0         0         0         0         0         0         0
         0         0         0         0         0         0         0         0
         0         0         0         0         0         0         0         0
         0         0         0         0         0         0         0         0
         0         0         0         0         0         0         0         0
         0         0         0         0         0         0         0         0
         0         0         0         0         0         0         0         0
         0         0         0         0         0         0         0         0
         0         0         0         0         0         0         0         0
         0         0         0         0         0         0         0         0
         0         0         0         0         0         0         0         0
         0         0         0         0         0         0         0         0
         0         0         0         0         0         0         0         0
         0         0         0         0         0         0         0         0
         0         0         0         0         0         0         0         0
         0         0         0         0         0         0         0         0
         0         0         0         0         0         0         0         0
         0         0         0         0         0         0         0         0
         0         0         0         0         0         0         0         0
         0         0         0         0         0         0         0         0
         0         0         0         0         0         0         0         0
         0         0         0         0         0         0         0         0
         0         0         0         0         0         0         0         0
         0         0         0         0         0         0         0         0
         0         0         0         0         0         0         0         0
         0         0         0         0         0         0         0         0
         0         0         0         0         0         0         0         0
         0         0         0         0         0         0         0         0
         0         0         0         0         0         0         0         0
         0         0         0         0         0         0         0         0
         0         0         0         0         0         0         0         0
         0         0         0         0         0         0         0         0
         0         0         0         0         0         0         0         0
         0         0         0         0         0         0         0         0
         0         0         0         0         0         0         0         0
         0         0         0         0         0         0         0         0
         0         0         0         0         0         0         0         0
         0         0         0         0         0         0         0         0
         0         0         0         0         0         0         0         0
         0         0         0         0         0         0         0         0
         0         0         0         0         0         0         0         0
         0         0         0         0         0         0         0         0
         0         0         0         0         0         0         0         0
         0         0         0         0         0         0         0         0
         0         0         0         0         0         0         0         0
         0         0         0         0         0         0         0         0
         0         0         0         0         0         0         0         0
         0         0         0         0         0         0         0         0
         0         0         0         0         0         0         0         0
         0         0         0         0         0         0         0         0
         0         0         0         0         0         0         0         0
         0         0         0         0         0         0         0         0
         0         0         0         0         0         0         0         0
         0         0         0         0         0         0         0         0
         0         0         0         0         0         0         0         0
         0         0         0         0         0         0         0         0
         0         0         0         0         0         0         0         0
         0         0         0         0         0         0         0         0
         0         0         0         0         0         0         0         0
         0         0         0         0         0         0         0         0
         0         0         0         0         0         0         0         0
         0         0         0         0         0         0         0         0
         0         0         0         0         0         0         0         0
         0         0         0         0         0         0         0         0
         0         0         0         0         0         0         0         0
         0         0         0         0         0         0         0         0
         0         0         0         0         0         0         0         0
         0         0         0         0         0         0         0         0
         0         0         0         0         0         0         0         0
         0         0         0         0         0         0         0         0
         0         0         0         0         0         0         0         0
         0         0         0         0         0         0         0         0
         0         0         0         0         0         0         0         0
         0         0         0         0         0         0         0         0
         0         0         0         0         0         0         0         0
         0         0         0         0         0         0         0         0
         0         0         0         0         0         0         0         0
         0         0         0         0         0         0         0         0
         0         0         0         0         0         0         0         0
         0         0         0         0         0         0         0         0
         0         0         0         0         0         0         0         0
         0         0         0         0         0         0         0         0
         0         0         0         0         0         0         0         0
         0         0         0         0         0         0         0         0
         0         0         0         0         0         0         0         0
         0         0         0         0         0         0         0         0
         0         0         0         0         0         0         0         0
         0         0         0         0         0         0         0         0
         0         0         0         0         0         0         0         0
         0         0         0         0         0         0         0         0
         0         0         0         0         0         0         0         0
         0         0         0         0         0         0         0         0
         0         0         0         0         0         0         0         0
         0         0         0         0         0         0         0         0
         0         0         0         0         0         0         0         0
         0         0         0         0         0         0         0         0
         0         0         0         0         0         0         0         0
         0         0         0         0         0         0         0         0
         0         0         0         0         0         0         0         0
         0         0         0         0         0         0         0         0
         0         0         0         0         0         0         0         0
         0         0         0         0         0         0         0         0
         0         0         0         0         0         0         0         0
         0         0         0         0         0         0         0         0
         0         0         0         0         0         0         0         0
         0         0         0         0         0         0         0         0
         0         0         0         0         0         0         0         0
         0         0         0         0         0         0         0         0
         0         0         0         0         0         0         0         0
         0         0         0         0         0         0         0         0
         0         0         0         0         0         0         0         0
         0         0         0         0         0         0         0         0
         0         0         0         0         0         0         0         0
         0         0         0         0         0         0         0         0
         0         0         0         0         0         0         0         0
         0         0         0         0         0         0         0         0
         0         0         0         0         0         0         0         0
         0         0         0         0         0         0         0         0
         0         0         0         0         0         0         0         0
         0         0         0         0         0         0         0         0
         0         0         0         0         0         0         0         0
         0         0         0         0         0         0         0         0
         0         0         0         0         0         0         0         0
         0         0         0         0         0         0         0         0
         0         0         0         0         0         0         0         0
         0         0         0         0         0         0         0         0
         0         0         0         0         0         0         0         0
         0         0         0         0         0         0         0         0
         0         0         0         0         0         0         0         0
         0         0         0         0         0         0         0         0
         0         0         0         0         0         0         0         0
         0         0         0         0         0         0         0         0
         0         0         0         0         0         0         0         0
         0         0         0         0         0         0         0         0
         0         0         0         0         0         0         0         0
         0         0         0         0         0         0         0         0
         0         0         0         0         0         0         0         0
         0         0         0         0         0         0         0         0
         0         0         0         0         0         0         0         0
         0         0         0         0         0         0         0         0
         0         0         0         0         0         0         0         0
         0         0         0         0         0         0         0         0
         0         0         0         0         0         0         0         0
         0         0         0         0         0         0         0         0
         0         0         0         0         0         0         0         0
         0         0         0         0         0         0         0         0
         0         0         0         0         0         0         0         0
         0         0         0         0         0         0         0         0
         0         0         0         0         0         0         0         0
         0         0         0         0         0         0         0         0
         0         0         0         0         0         0         0         0
         0         0         0         0         0         0         0         0
         0         0         0         0         0         0         0         0
         0         0         0         0         0         0         0         0
         0         0         0         0         0         0         0         0
         0         0         0         0         0         0         0         0
         0         0         0         0         0         0         0         0
         0         0         0         0         0         0         0         0
         0         0         0         0         0         0         0         0
         0         0         0         0         0         0         0         0
         0         0         0         0         0         0         0         0
         0         0         0         0         0         0         0         0
         0         0         0         0         0         0         0         0
         0         0         0         0         0         0         0         0
         0         0         0         0         0         0         0         0
         0         0         0         0         0         0         0         0
         0         0         0         0         0         0         0         0
         0         0         0         0         0         0         0         0
         0         0         0         0         0         0         0         0
         0         0         0         0         0         0         0         0
         0         0         0         0         0         0         0         0
         0         0         0         0         0         0         0         0
         0         0         0         0         0         0         0         0
         0         0         0         0         0         0         0         0
         0         0         0         0         0         0         0         0
         0         0         0         0         0         0         0         0
         0         0         0         0         0         0         0         0
         0         0         0         0         0         0         0         0
         0         0         0         0         0         0         0         0
         0         0         0         0         0         0         0         0
         0         0         0         0         0         0         0         0
         0         0         0         0         0         0         0         0
         0         0         0         0         0         0         0         0
         0         0         0         0         0         0         0         0
         0         0         0         0         0         0         0         0
         0         0         0         0         0         0         0         0
         0         0         0         0         0         0         0         0
         0         0         0         0         0         0         0         0
         0         0         0         0         0         0         0         0
         0         0         0         0         0         0         0         0
         0         0         0         0         0         0         0         0
         0         0         0         0         0         0         0         0
         0         0         0         0         0         0         0         0
         0         0         0         0         0         0         0         0
         0         0         0         0         0         0         0         0
         0         0         0         0         0         0         0         0
         0         0         0         0         0         0         0         0
         0         0         0         0         0         0         0         0
         0         0         0         0         0         0         0         0
         0         0         0         0         0         0         0         0
         0         0         0         0         0         0         0         0
         0         0         0         0         0         0         0         0
         0         0         0         0         0         0         0         0
         0         0         0         0         0         0         0         0
         0         0         0         0         0         0         0         0
         0         0         0         0         0         0         0         0
         0         0         0         0         0         0         0         0
         0         0         0         0         0         0         0         0
         0         0         0         0         0         0         0         0
         0         0         0         0         0         0         0         0
         0         0         0         0         0         0         0         0
         0         0         0         0         0         0         0         0
         0         0         0         0         0         0         0         0
         0         0         0         0         0         0         0         0
         0         0         0         0         0         0         0         0
         0         0         0         0         0         0         0         0
         0         0         0         0         0         0         0         0
         0         0         0         0         0         0         0         0
         0         0         0         0         0         0         0         0
         0         0         0         0         0         0         0         0
         0         0         0         0         0         0         0         0
         0         0         0         0         0         0         0         0
         0         0         0         0         0         0         0         0
         0         0         0         0         0         0         0         0
         0         0         0         0         0         0         0         0
         0         0         0         0         0         0         0         0
         0         0         0         0         0         0         0         0
         0         0         0         0         0         0         0         0
         0         0         0         0         0         0         0         0
         0         0         0         0         0         0         0         0
         0         0         0         0         0         0         0         0
         0         0         0         0         0         0         0         0
         0         0         0         0         0         0         0         0
         0         0         0         0         0         0         0         0
         0         0         0         0         0         0         0         0
         0         0         0         0         0         0         0         0
         0         0         0         0         0         0         0         0
         0         0         0         0         0         0         0         0
         0         0         0         0         0         0         0         0
         0         0         0         0         0         0         0         0
         0         0         0         0         0         0         0         0
         0         0         0         0         0         0         0         0
         0         0         0         0         0         0         0         0
         0         0         0         0         0         0         0         0
         0         0         0         0         0         0         0         0
         0         0         0         0         0         0         0         0
         0         0         0         0         0         0         0         0
         0         0         0         0         0         0         0         0
         0         0         0         0         0         0         0         0
         0         0         0         0         0         0         0         0
         0         0         0         0         0         0         0         0
         0         0         0         0         0         0         0         0
         0         0         0         0         0         0         0         0
         0         0         0         0         0         0         0         0
         0         0         0         0         0         0         0         0
         0         0         0         0         0         0         0         0
         0         0         0         0         0         0         0         0
         0         0         0         0         0         0         0         0
         0         0         0         0         0         0         0         0
         0         0         0         0         0         0         0         0
         0         0         0         0         0         0         0         0
         0         0         0         0         0         0         0         0
         0         0         0         0         0         0         0         0
         0         0         0         0         0         0         0         0
         0         0         0         0         0         0         0         0
         0         0         0         0         0         0         0         0
         0         0         0         0         0         0         0         0
         0         0         0         0         0         0         0         0
         0         0         0         0         0         0         0         0
         0         0         0         0         0         0         0         0
         0         0         0         0         0         0         0         0
         0         0         0         0         0         0         0         0
         0         0         0         0         0         0         0         0
         0         0         0         0         0         0         0         0
         0         0         0         0         0         0         0         0
         0         0         0         0         0         0         0         0
         0         0         0         0         0         0         0         0
         0         0         0         0         0         0         0         0
         0         0         0         0         0         0         0         0
         0         0         0         0         0         0         0         0
         0         0         0         0         0         0         0         0
         0         0         0         0         0         0         0         0
         0         0         0         0         0         0         0         0
         0         0         0         0         0         0         0         0
         0         0         0         0         0         0         0         0
         0         0         0         0         0         0         0         0
         0         0         0         0         0         0         0         0
         0         0         0         0         0         0         0         0
         0         0         0         0         0         0         0         0
         0         0         0         0         0         0         0         0
         0         0         0         0         0         0         0         0
         0         0         0         0         0         0         0         0
         0         0         0         0         0         0         0         0
         0         0         0         0         0         0         0         0
         0         0         0         0         0         0         0         0
         0         0         0         0         0         0         0         0
         0         0         0         0         0         0         0         0
         0         0         0         0         0         0         0         0
         0         0         0         0         0         0         0         0
         0         0         0         0         0         0         0         0
         0         0         0         0         0         0         0         0
         0         0         0         0         0         0         0         0
         0         0         0         0         0         0         0         0
         0         0         0         0         0         0         0         0
         0         0         0         0         0         0         0         0
         0         0         0         0         0         0         0         0
         0         0         0         0         0         0         0         0
         0         0         0         0         0         0         0         0
         0         0         0         0         0         0         0         0
         0         0         0         0         0         0         0         0
         0         0         0         0         0         0         0         0
         0         0         0         0         0         0         0         0
         0         0         0         0         0         0         0         0
         0         0         0         0         0         0         0         0
         0         0         0         0         0         0         0         0
         0         0         0         0         0         0         0         0
         0         0         0         0         0         0         0         0
         0         0         0         0         0         0         0         0
         0         0         0         0         0         0         0         0
         0         0         0         0         0         0         0         0
         0         0         0         0         0         0         0         0
         0         0         0         0         0         0         0         0
         0         0         0         0         0         0         0         0
         0         0         0         0         0         0         0         0
         0         0         0         0         0         0         0         0
         0         0         0         0         0         0         0         0
         0         0         0         0         0         0         0         0
         0         0         0         0         0         0         0         0
         0         0         0         0         0         0         0         0
         0         0         0         0         0         0         0         0
         0         0         0         0         0         0         0         0
         0         0         0         0         0         0         0         0
         0         0         0         0         0         0         0         0
         0         0         0         0         0         0         0         0
         0         0         0         0         0         0         0         0
         0         0         0         0         0         0         0         0
         0         0         0         0         0         0         0         0
         0         0         0         0         0         0         0         0
         0         0         0         0         0         0         0         0
         0         0         0         0         0         0         0         0
         0         0         0         0         0         0         0         0
         0         0         0         0         0         0         0         0
         0         0         0         0         0         0         0         0
         0         0         0         0         0         0         0         0
         0         0         0         0         0         0         0         0
         0         0         0         0         0         0         0         0
         0         0         0         0         0         0         0         0
         0         0         0         0         0         0         0         0
         0         0         0         0         0         0         0         0
         0         0         0         0         0         0         0         0
         0         0         0         0         0         0         0         0
         0         0         0         0         0         0         0         0
         0         0         0         0         0         0         0         0
         0         0         0         0         0         0         0         0
         0         0         0         0         0         0         0         0
         0         0         0         0         0         0         0         0
         0         0         0         0         0         0         0         0
         0         0         0         0         0         0         0         0
         0         0         0         0         0         0         0         0
         0         0         0         0         0         0         0         0
         0         0         0         0         0         0         0         0
         0         0         0         0         0         0         0         0
         0         0         0         0         0         0         0         0
         0         0         0         0         0         0         0         0
         0         0         0         0         0         0         0         0
         0         0         0         0         0         0         0         0
         0         0         0         0         0         0         0         0
         0         0         0         0         0         0         0         0
         0         0         0         0         0         0         0         0
         0         0         0         0         0         0         0         0
         0         0         0         0         0         0         0         0
         0         0         0         0         0         0         0         0
         0         0         0         0         0         0         0         0
         0         0         0         0         0         0         0         0
         0         0         0         0         0         0         0         0
         0         0         0         0         0         0         0         0
         0         0         0         0         0         0         0         0
         0         0         0         0         0         0         0         0
         0         0         0         0         0         0         0         0
         0         0         0         0         0         0         0         0
         0         0         0         0         0         0         0         0
         0         0         0         0         0         0         0         0
         0         0         0         0         0         0         0         0
         0         0         0         0         0         0         0         0
         0         0         0         0         0         0         0         0
         0         0         0         0         0         0         0         0
         0         0         0         0         0         0         0         0
         0         0         0         0         0         0         0         0
         0         0         0         0         0         0         0         0
         0         0         0         0         0         0         0         0
         0         0         0         0         0         0         0         0
         0         0         0         0         0         0         0         0
         0         0         0         0         0         0         0         0
         0         0         0         0         0         0         0         0
         0         0         0         0         0         0         0         0
         0         0         0         0         0         0         0         0
         0         0         0         0         0         0         0         0
         0         0         0         0         0         0         0         0
         0         0         0         0         0         0         0         0
         0         0         0         0         0         0         0         0
         0         0         0         0         0         0         0         0
         0         0         0         0         0         0         0         0
         0         0         0         0         0         0         0         0
         0         0         0         0         0         0         0         0
         0         0         0         0         0         0         0         0
         0         0         0         0         0         0         0         0
         0         0         0         0         0         0         0         0
         0         0         0         0         0         0         0         0
         0         0         0         0         0         0         0         0
         0         0         0         0         0         0         0         0
         0         0         0         0         0         0         0         0
         0         0         0         0         0         0         0         0
         0         0         0         0         0         0         0         0
         0         0         0         0         0         0         0         0
         0         0         0         0         0         0         0         0
         0         0         0         0         0         0         0         0
         0         0         0         0         0         0         0         0
         0         0         0         0         0         0         0         0
         0         0         0         0         0         0         0         0
         0         0         0         0         0         0         0         0
         0         0         0         0         0         0         0         0
         0         0         0         0         0         0         0         0
         0         0         0         0         0         0         0         0
         0         0         0         0         0         0         0         0
         0         0         0         0         0         0         0         0
         0         0         0         0         0         0         0         0
         0         0         0         0         0         0         0         0
         0         0         0         0         0         0         0         0
         0         0         0         0         0         0         0         0
         0         0         0         0         0         0         0         0
         0         0         0         0         0         0         0         0
         0         0         0         0         0         0         0         0
         0         0         0         0         0         0         0         0
         0         0         0         0         0         0         0         0
         0         0         0         0         0         0         0         0
         0         0         0         0         0         0         0         0
         0         0         0         0         0         0         0         0
         0         0         0         0         0         0         0         0
         0         0         0         0         0         0         0         0
         0         0         0         0         0         0         0         0
         0         0         0         0         0         0         0         0
         0         0         0         0         0         0         0         0
         0         0         0         0         0         0         0         0
         0         0         0         0         0         0         0         0
         0         0         0         0         0         0         0         0
         0         0         0         0         0         0         0         0
         0         0         0         0         0         0         0         0
         0         0         0         0         0         0         0         0
         0         0         0         0         0         0         0         0
         0         0         0         0         0         0         0         0
         0         0         0         0         0         0         0         0
         0         0         0         0         0         0         0         0
         0         0         0         0         0         0         0         0
         0         0         0         0         0         0         0         0
         0         0         0         0         0         0         0         0
         0         0         0         0         0         0         0         0
         0         0         0         0         0         0         0         0
         0         0         0         0         0         0         0         0
         0         0         0         0         0         0         0         0
         0         0         0         0         0         0         0         0
         0         0         0         0         0         0         0         0
         0         0         0         0         0         0         0         0
         0         0         0         0         0         0         0         0
         0         0         0         0         0         0         0         0
         0         0         0         0         0         0         0         0
         0         0         0         0         0         0         0         0
         0         0         0         0         0         0         0         0
         0         0         0         0         0         0         0         0
         0         0         0         0         0         0         0         0
         0         0         0         0         0         0         0         0
         0         0         0         0         0         0         0         0
         0         0         0         0         0         0         0         0
         0         0         0         0         0         0         0         0
         0         0         0         0         0         0         0         0
         0         0         0         0         0         0         0         0
         0         0         0         0         0         0         0         0
         0         0         0         0         0         0         0         0
         0         0         0         0         0         0         0         0
         0         0         0         0         0         0         0         0
         0         0         0         0         0         0         0         0
         0         0         0         0         0         0         0         0
         0         0         0         0         0         0         0         0
         0         0         0         0         0         0         0         0
         0         0         0         0         0         0         0         0
         0         0         0         0         0         0         0         0
         0         0         0         0         0         0         0         0
         0         0         0         0         0         0         0         0
         0         0         0         0         0         0         0         0
         0         0         0         0         0         0         0         0
         0         0         0         0         0         0         0         0
         0         0         0         0         0         0         0         0
         0         0         0         0         0         0         0         0
         0         0         0         0         0         0         0         0
         0         0         0         0         0         0         0         0
         0         0         0         0         0         0         0         0
         0         0         0         0         0         0         0         0
         0         0         0         0         0         0         0         0
         0         0         0         0         0         0         0         0
         0         0         0         0         0         0         0         0
         0         0         0         0         0         0         0         0
         0         0         0         0         0         0         0         0
         0         0         0         0         0         0         0         0
         0         0         0         0         0         0         0         0
         0         0         0         0         0         0         0         0
         0         0         0         0         0         0         0         0
         0         0         0         0         0         0         0         0
         0         0         0         0         0         0         0         0
         0         0         0         0         0         0         0         0
         0         0         0         0         0         0         0         0
         0         0         0         0         0         0         0         0
         0         0         0         0         0         0         0         0
         0         0         0         0         0         0         0         0
         0         0         0         0         0         0         0         0
         0         0         0         0         0         0         0         0
         0         0         0         0         0         0         0         0
         0         0         0         0         0         0         0         0
         0         0         0         0         0         0         0         0
         0         0         0         0         0         0         0         0
         0         0         0         0         0         0         0         0
         0         0         0         0         0         0         0         0
         0         0         0         0         0         0         0         0
         0         0         0         0         0         0         0         0
         0         0         0         0         0         0         0         0
         0         0         0         0         0         0         0         0
         0         0         0         0         0         0         0         0
         0         0         0         0         0         0         0         0
         0         0         0         0         0         0         0         0
         0         0         0         0         0         0         0         0
         0         0         0         0         0         0         0         0
         0         0         0         0         0         0         0         0
         0         0         0         0         0         0         0         0
         0         0         0         0         0         0         0         0
         0         0         0         0         0         0         0         0
         0         0         0         0         0         0         0         0
         0         0         0         0         0         0         0         0
         0         0         0         0         0         0         0         0
         0         0         0         0         0         0         0         0
         0         0         0         0         0         0         0         0
         0         0         0         0         0         0         0         0
         0         0         0         0         0         0         0         0
         0         0         0         0         0         0         0         0
         0         0         0         0         0         0         0         0
         0         0         0         0         0         0         0         0
         0         0         0         0         0         0         0         0
         0         0         0         0         0         0         0         0
         0         0         0         0         0         0         0         0
         0         0         0         0         0         0         0         0
         0         0         0         0         0         0         0         0
         0         0         0         0         0         0         0         0
         0         0         0         0         0         0         0         0
         0         0         0         0         0         0         0         0
         0         0         0         0         0         0         0         0
         0         0         0         0         0         0         0         0
         0         0         0         0         0         0         0         0
         0         0         0         0         0         0         0         0
         0         0         0         0         0         0         0         0
         0         0         0         0         0         0         0         0
         0         0         0         0         0         0         0         0
         0         0         0         0         0         0         0         0
         0         0         0         0         0         0         0         0
         0         0         0         0         0         0         0         0
         0         0         0         0         0         0         0         0
         0         0         0         0         0         0         0         0
         0         0         0         0         0         0         0         0
         0         0         0         0         0         0         0         0
         0         0         0         0         0         0         0         0
         0         0         0         0         0         0         0         0
         0         0         0         0         0         0         0         0
         0         0         0         0         0         0         0         0
         0         0         0         0         0         0         0         0
         0         0         0         0         0         0         0         0
         0         0         0         0         0         0         0         0
         0         0         0         0         0         0         0         0
         0         0         0         0         0         0         0         0
         0         0         0         0         0         0         0         0
         0         0         0         0         0         0         0         0
         0         0         0         0         0         0         0         0
         0         0         0         0         0         0         0         0
         0         0         0         0         0         0         0         0
         0         0         0         0         0         0         0         0
         0         0         0         0         0         0         0         0
         0         0         0         0         0         0         0         0
         0         0         0         0         0         0         0         0
         0         0         0         0         0         0         0         0
         0         0         0         0         0         0         0         0
         0         0         0         0         0         0         0         0
         0         0         0         0         0         0         0         0
         0         0         0         0         0         0         0         0
         0         0         0         0         0         0         0         0
         0         0         0         0         0         0         0         0
         0         0         0         0         0         0         0         0
         0         0         0         0         0         0         0         0
         0         0         0         0         0         0         0         0
         0         0         0         0         0         0         0         0
         0         0         0         0         0         0         0         0
         0         0         0         0         0         0         0         0
         0         0         0         0         0         0         0         0
         0         0         0         0         0         0         0         0
         0         0         0         0         0         0         0         0
         0         0         0         0         0         0         0         0
         0         0         0         0         0         0         0         0
         0         0         0         0         0         0         0         0
         0         0         0         0         0         0         0         0
         0         0         0         0         0         0         0         0
         0         0         0         0         0         0         0         0
         0         0         0         0         0         0         0         0
         0         0         0         0         0         0         0         0
         0         0         0         0         0         0         0         0
         0         0         0         0         0         0         0         0
         0         0         0         0         0         0         0         0
         0         0         0         0         0         0         0         0
         0         0         0         0         0         0         0         0
         0         0         0         0         0         0         0         0
         0         0         0         0         0         0         0         0
         0         0         0         0         0         0         0         0
         0         0         0         0         0         0         0         0
         0         0         0         0         0         0         0         0
         0         0         0         0         0         0         0         0
         0         0         0         0         0         0         0         0
         0         0         0         0         0         0         0         0
         0         0         0         0         0         0         0         0
         0         0         0         0         0         0         0         0
         0         0         0         0         0         0         0         0
         0         0         0         0         0         0         0         0
         0         0         0         0         0         0         0         0
         0         0         0         0         0         0         0         0
         0         0         0         0         0         0         0         0
         0         0         0         0         0         0         0         0
         0         0         0         0         0         0         0         0
         0         0         0         0         0         0         0         0
         0         0         0         0         0         0         0         0
         0         0         0         0         0         0         0         0
         0         0         0         0         0         0         0         0
         0         0         0         0         0         0         0         0
         0         0         0         0         0         0         0         0
         0         0         0         0         0         0         0         0
         0         0         0         0         0         0         0         0
         0         0         0         0         0         0         0         0
         0         0         0         0         0         0         0         0
         0         0         0         0         0         0         0         0
         0         0         0         0         0         0         0         0
         0         0         0         0         0         0         0         0
         0         0         0         0         0         0         0         0
         0         0         0         0         0         0         0         0
         0         0         0         0         0         0         0         0
         0         0         0         0         0         0         0         0
         0         0         0         0         0         0         0         0
         0         0         0         0         0         0         0         0
         0         0         0         0         0         0         0         0
         0         0         0         0         0         0         0         0
         0         0         0         0         0         0         0         0
         0         0         0         0         0         0         0         0
         0         0         0         0         0         0         0         0
         0         0         0         0         0         0         0         0
         0         0         0         0         0         0         0         0
         0         0         0         0         0         0         0         0
         0         0         0         0         0         0         0         0
         0         0         0         0         0         0         0         0
         0         0         0         0         0         0         0         0
         0         0         0         0         0         0         0         0
         0         0         0         0         0         0         0         0
         0         0         0         0         0         0         0         0
         0         0         0         0         0         0         0         0
         0         0         0         0         0         0         0         0
         0         0         0         0         0         0         0         0
         0         0         0         0         0         0         0         0
         0         0         0         0         0         0         0         0
         0         0         0         0         0         0         0         0
         0         0         0         0         0         0         0         0
         0         0         0         0         0         0         0         0
         0         0         0         0         0         0         0         0
         0         0         0         0         0         0         0         0
         0         0         0         0         0         0         0         0
         0         0         0         0         0         0         0         0
         0         0         0         0         0         0         0         0
         0         0         0         0         0         0         0         0
         0         0         0         0         0         0         0         0
         0         0         0         0         0         0         0         0
         0         0         0         0         0         0         0         0
         0         0         0         0         0         0         0         0
         0         0         0         0         0         0         0         0
         0         0         0         0         0         0         0         0
         0         0         0         0         0         0         0         0
         0         0         0         0         0         0         0         0
         0         0         0         0         0         0         0         0
         0         0         0         0         0         0         0         0
         0         0         0         0         0         0         0         0
         0         0         0         0         0         0         0         0
         0         0         0         0         0         0         0         0
         0         0         0         0         0         0         0         0
         0         0         0         0         0         0         0         0
         0         0         0         0         0         0         0         0
         0         0         0         0         0         0         0         0
         0         0         0         0         0         0         0         0
         0         0         0         0         0         0         0         0
         0         0         0         0         0         0         0         0
         0         0         0         0         0         0         0         0
         0         0         0         0         0         0         0         0
         0         0         0         0         0         0         0         0
         0         0         0         0         0         0         0         0
         0         0         0         0         0         0         0         0
         0         0         0         0         0         0         0         0
         0         0         0         0         0         0         0         0
         0         0         0         0         0         0         0         0
         0         0         0         0         0         0         0         0
         0         0         0         0         0         0         0         0
         0         0         0         0         0         0         0         0
         0         0         0         0         0         0         0         0
         0         0         0         0         0         0         0         0
         0         0         0         0         0         0         0         0
         0         0         0         0         0         0         0         0
         0         0         0         0         0         0         0         0
         0         0         0         0         0         0         0         0
         0         0         0         0         0         0         0         0
         0         0         0         0         0         0         0         0
         0         0         0         0         0         0         0         0
         0         0         0         0         0         0         0         0
         0         0         0         0         0         0         0         0
         0         0         0         0         0         0         0         0
         0         0         0         0         0         0         0         0
         0         0         0         0         0         0         0         0
         0         0         0         0         0         0         0         0
         0         0         0         0         0         0         0         0
         0         0         0         0         0         0         0         0
         0         0         0         0         0         0         0         0
         0         0         0         0         0         0         0         0
         0         0         0         0         0         0         0         0
         0         0         0         0         0         0         0         0
         0         0         0         0         0         0         0         0
         0         0         0         0         0         0         0         0
         0         0         0         0         0         0         0         0
         0         0         0         0         0         0         0         0
         0         0         0         0         0         0         0         0
         0         0         0         0         0         0         0         0
         0         0         0         0         0         0         0         0
         0         0         0         0         0         0         0         0
         0         0         0         0         0         0         0         0
         0         0         0         0         0         0         0         0
         0         0         0         0         0         0         0         0
         0         0         0         0         0         0         0         0
         0         0         0         0         0         0         0         0
         0         0         0         0         0         0         0         0
         0         0         0         0         0         0         0         0
         0         0         0         0         0         0         0         0
         0         0         0         0         0         0         0         0
         0         0         0         0         0         0         0         0
         0         0         0         0         0         0         0         0
         0         0         0         0         0         0         0         0
         0         0         0         0         0         0         0         0
         0         0         0         0         0         0         0         0
         0         0         0         0         0         0         0         0
         0         0         0         0         0         0         0         0
         0         0         0         0         0         0         0         0
         0         0         0         0         0         0         0         0
         0         0         0         0         0         0         0         0
         0         0         0         0         0         0         0         0
         0         0         0         0         0         0         0         0
         0         0         0         0         0         0         0         0
         0         0         0         0         0         0         0         0
         0         0         0         0         0         0         0         0
         0         0         0         0         0         0         0         0
         0         0         0         0         0         0         0         0
         0         0         0         0         0         0         0         0
         0         0         0         0         0         0         0         0
         0         0         0         0         0         0         0         0
         0         0         0         0         0         0         0         0
         0         0         0         0         0         0         0         0
         0         0         0         0         0         0         0         0
         0         0         0         0         0         0         0         0
         0         0         0         0         0         0         0         0
         0         0         0         0         0         0         0         0
         0         0         0         0         0         0         0         0
         0         0         0         0         0         0         0         0
         0         0         0         0         0         0         0         0
         0         0         0         0         0         0         0         0
         0         0         0         0         0         0         0         0
         0         0         0         0         0         0         0         0
         0         0         0         0         0         0         0         0
         0         0         0         0         0         0         0         0
         0         0         0         0         0         0         0         0
         0         0         0         0         0         0         0         0
         0         0         0         0         0         0         0         0
         0         0         0         0         0         0         0         0
         0         0         0         0         0         0         0         0
         0         0         0         0         0         0         0         0
         0         0         0         0         0         0         0         0
         0         0         0         0         0         0         0         0
         0         0         0         0         0         0         0         0
         0         0         0         0         0         0         0         0
         0         0         0         0         0         0         0         0
         0         0         0         0         0         0         0         0
         0         0         0         0         0         0         0         0
         0         0         0         0         0         0         0         0
         0         0         0         0         0         0         0         0
         0         0         0         0         0         0         0         0
         0         0         0         0         0         0         0         0
         0         0         0         0         0         0         0         0
         0         0         0         0         0         0         0         0
         0         0         0         0         0         0         0         0
         0         0         0         0         0         0         0         0
         0         0         0         0         0         0         0         0
         0         0         0         0         0         0         0         0
         0         0         0         0         0         0         0         0
         0         0         0         0         0         0         0         0
         0         0         0         0         0         0         0         0
         0         0         0         0         0         0         0         0
         0         0         0         0         0         0         0         0
         0         0         0         0         0         0         0         0
         0         0         0         0         0         0         0         0
         0         0         0         0         0         0         0         0
         0         0         0         0         0         0         0         0
         0         0         0         0         0         0         0         0
         0         0         0         0         0         0         0         0
         0         0         0         0         0         0         0         0
         0         0         0         0         0         0         0         0
         0         0         0         0         0         0         0         0
         0         0         0         0         0         0         0         0
         0         0         0         0         0         0         0         0
         0         0         0         0         0         0         0         0
         0         0         0         0         0         0         0         0
         0         0         0         0         0         0         0         0
         0         0         0         0         0         0         0         0
         0         0         0         0         0         0         0         0
         0         0         0         0         0         0         0         0
         0         0         0         0         0         0         0         0
         0         0         0         0         0         0         0         0
         0         0         0         0         0         0         0         0
         0         0         0         0         0         0         0         0
         0         0         0         0         0         0         0         0
         0         0         0         0         0         0         0         0
         0         0         0         0         0         0         0         0
         0         0         0         0         0         0         0         0
         0         0         0         0         0         0         0         0
         0         0         0         0         0         0         0         0
         0         0         0         0         0         0         0         0
         0         0         0         0         0         0         0         0
         0         0         0         0         0         0         0         0
         0         0         0         0         0         0         0         0
         0         0         0         0         0         0         0         0
         0         0         0         0         0         0         0         0
         0         0         0         0         0         0         0         0
         0         0         0         0         0         0         0         0
         0         0         0         0         0         0         0         0
         0         0         0         0         0         0         0         0
         0         0         0         0         0         0         0         0
         0         0         0         0         0         0         0         0
         0         0         0         0         0         0         0         0
         0         0         0         0         0         0         0         0
         0         0         0         0         0         0         0         0
         0         0         0         0         0         0         0         0
         0         0         0         0         0         0         0         0
         0         0         0         0         0         0         0         0
         0         0         0         0         0         0         0         0
         0         0         0         0         0         0         0         0
         0         0         0         0         0         0         0         0
         0         0         0         0         0         0         0         0
         0         0         0         0         0         0         0         0
         0         0         0         0         0         0         0         0
         0         0         0         0         0         0         0         0
         0         0         0         0         0         0         0         0
         0         0         0         0         0         0         0         0
         0         0         0         0         0         0         0         0
         0         0         0         0         0         0         0         0
         0         0         0         0         0         0         0         0
         0         0         0         0         0         0         0         0
         0         0         0         0         0         0         0         0
         0         0         0         0         0         0         0         0
         0         0         0         0         0         0         0         0
         0         0         0         0         0         0         0         0
         0         0         0         0         0         0         0         0
         0         0         0         0         0         0         0         0
         0         0         0         0         0         0         0         0
         0         0         0         0         0         0         0         0
         0         0         0         0         0         0         0         0
         0         0         0         0         0         0         0         0
         0         0         0         0         0         0         0         0
         0         0         0         0         0         0         0         0
         0         0         0         0         0         0         0         0
         0         0         0         0         0         0         0         0
         0         0         0         0         0         0         0         0
         0         0         0         0         0         0         0         0
         0         0         0         0         0         0         0         0
         0         0         0         0         0         0         0         0
         0         0         0         0         0         0         0         0
         0         0         0         0         0         0         0         0
         0         0         0         0         0         0         0         0
         0         0         0         0         0         0         0         0
         0         0         0         0         0         0         0         0
         0         0         0         0         0         0         0         0
         0         0         0         0         0         0         0         0
         0         0         0         0         0         0         0         0
         0         0         0         0         0         0         0         0
         0         0         0         0         0         0         0         0
         0         0         0         0         0         0         0         0
         0         0         0         0         0         0         0         0
         0         0         0         0         0         0         0         0
         0         0         0         0         0         0         0         0
         0         0         0         0         0         0         0         0
         0         0         0         0         0         0         0         0
         0         0         0         0         0         0         0         0
         0         0         0         0         0         0         0         0
         0         0         0         0         0         0         0         0
         0         0         0         0         0         0         0         0
         0         0         0         0         0         0         0         0
         0         0         0         0

      3444         0 !NGRP NST2
         0         2         0         7         1         0         9         1         0
        13         1         0        15         1         0        19         1         0
        22         1         0        26         1         0        28         1         0
        33         1         0        35         1         0        39         1         0
        43         1         0        45         1         0        49         1         0
        51         1         0        55         1         0        59         1         0
        61         1         0        65         1         0        68         1         0
        70         1         0        74         1         0        78         1         0
        80         1         0        84         1         0        87         1         0
        90         1         0        93         2         0       100         1         0
       102         1         0       106         1         0       108         1         0
       112         1         0       116         1         0       118         1         0
       122         1         0       125         1         0       127         1         0
       131         1         0       135         1         0       137         1         0
       141         1         0       145         1         0       149         1         0
       151         1         0       155         1         0       159         1         0
       163         1         0       165         1         0       170         1         0
       172         1         0       176         1         0       179         1         0
       181         1         0       185         1         0       189         1         0
       191         1         0       197         1         0       200         1         0
       203         1         0       205         1         0       209         1         0
       213         1         0       215         1         0       219         1         0
       222         1         0       224         1         0       228         1         0
       232         1         0       234         1         0       238         1         0
       240         1         0       244         1         0       247         1         0
       251         1         0       253         1         0       257         1         0
       262         1         0       264         1         0       268         1         0
       271         1         0       286         1         0       288         1         0
       292         1         0       294         1         0       298         1         0
       301         1         0       305         1         0       307         1         0
       311         1         0       314         1         0       317         1         0
       320         2         0       327         1         0       329         1         0
       333         1         0       336         1         0       339         2         0
       351         1         0       353         1         0       357         1         0
       360         1         0       363         1         0       366         2         0
       373         1         0       375         1         0       379         1         0
       382         1         0       385         2         0       397         1         0
       399         1         0       403         1         0       406         1         0
       409         1         0       411         1         0       414         1         0
       416         1         0       420         1         0       423         1         0
       426         1         0       428         1         0       431         1         0
       433         1         0       436         2         0       443         1         0
       445         1         0       449         1         0       451         1         0
       455         1         0       458         1         0       462         1         0
       464         1         0       469         1         0       471         1         0
       475         1         0       479         1         0       481         1         0
       485         1         0       487         1         0       491         1         0
       495         1         0       497         1         0       501         1         0
       504         1         0       506         1         0       510         1         0
       514         1         0       516         1         0       520         1         0
       523         1         0       526         1         0       529         2         0
       536         1         0       538         1         0       542         1         0
       544         1         0       548         1         0       552         1         0
       554         1         0       558         1         0       561         1         0
       563         1         0       567         1         0       571         1         0
       573         1         0       577         1         0       581         1         0
       585         1         0       587         1         0       591         1         0
       595         1         0       599         1         0       601         1         0
       606         1         0       608         1         0       612         1         0
       615         1         0       617         1         0       621         1         0
       625         1         0       627         1         0       633         1         0
       636         1         0       639         1         0       641         1         0
       645         1         0       649         1         0       651         1         0
       655         1         0       658         1         0       660         1         0
       664         1         0       668         1         0       670         1         0
       674         1         0       676         1         0       680         1         0
       683         1         0       687         1         0       689         1         0
       693         1         0       698         1         0       700         1         0
       704         1         0       707         1         0       722         1         0
       724         1         0       728         1         0       730         1         0
       734         1         0       737         1         0       741         1         0
       743         1         0       747         1         0       750         1         0
       753         1         0       756         2         0       763         1         0
       765         1         0       769         1         0       772         1         0
       775         2         0       787         1         0       789         1         0
       793         1         0       796         1         0       799         1         0
       802         2         0       809         1         0       811         1         0
       815         1         0       818         1         0       821         2         0
       833         1         0       835         1         0       839         1         0
       842         1         0       845         1         0       847         1         0
       850         1         0       852         1         0       856         1         0
       859         1         0       862         1         0       864         1         0
       867         1         0       869         1         0       872         2         0
       888         2         0       899         1         0       907         1         0
       916         1         0       919         1         0       922         1         0
       925         1         0       928         1         0       931         1         0
       934         1         0       936         1         0       938         1         0
       941         1         0       944         1         0       947         1         0
       950         1         0       953         1         0       956         1         0
       959         1         0       963         1         0       966         1         0
       969         1         0       972         1         0       975         1         0
       978         1         0       981         1         0       984         1         0
       987         1         0       990         1         0       993         1         0
       996         1         0       999         1         0      1002         1         0
      1006         2         0      1022         2         0      1033         1         0
      1041         1         0      1050         1         0      1053         1         0
      1056         1         0      1059         1         0      1062         1         0
      1065         1         0      1068         1         0      1070         1         0
      1072         1         0      1075         1         0      1078         1         0
      1081         1         0      1084         1         0      1087         1         0
      1090         1         0      1093         1         0      1097         1         0
      1100         1         0      1103         1         0      1106         1         0
      1109         1         0      1112         1         0      1115         1         0
      1118         1         0      1121         1         0      1124         1         0
      1127         1         0      1130         1         0      1133         1         0
      1136         1         0      1140         2         0      1156         2         0
      1167         1         0      1175         1         0      1184         1         0
      1187         1         0      1190         1         0      1193         1         0
      1196         1         0      1199         1         0      1202         1         0
      1204         1         0      1206         1         0      1209         1         0
      1212         1         0      1215         1         0      1218         1         0
      1221         1         0      1224         1         0      1227         1         0
      1231         1         0      1234         1         0      1237         1         0
      1240         1         0      1243         1         0      1246         1         0
      1249         1         0      1252         1         0      1255         1         0
      1258         1         0      1261         1         0      1264         1         0
      1267         1         0      1270         1         0      1274         2         0
      1290         2         0      1301         1         0      1309         1         0
      1318         1         0      1321         1         0      1324         1         0
      1327         1         0      1330         1         0      1333         1         0
      1336         1         0      1338         1         0      1340         1         0
      1343         1         0      1346         1         0      1349         1         0
      1352         1         0      1355         1         0      1358         1         0
      1361         1         0      1365         1         0      1368         1         0
      1371         1         0      1374         1         0      1377         1         0
      1380         1         0      1383         1         0      1386         1         0
      1389         1         0      1392         1         0      1395         1         0
      1398         1         0      1401         1         0      1404         1         0
      1408         2         0      1424         2         0      1435         1         0
      1443         1         0      1452         1         0      1455         1         0
      1458         1         0      1461         1         0      1464         1         0
      1467         1         0      1470         1         0      1472         1         0
      1474         1         0      1477         1         0      1480         1         0
      1483         1         0      1486         1         0      1489         1         0
      1492         1         0      1495         1         0      1499         1         0
      1502         1         0      1505         1         0      1508         1         0
      1511         1         0      1514         1         0      1517         1         0
      1520         1         0      1523         1         0      1526         1         0
      1529         1         0      1532         1         0      1535         1         0
      1538         1         0      1542         2         0      1558         2         0
      1569         1         0      1577         1         0      1586         1         0
      1589         1         0      1592         1         0      1595         1         0
      1598         1         0      1601         1         0      1604         1         0
      1606         1         0      1608         1         0      1611         1         0
      1614         1         0      1617         1         0      1620         1         0
      1623         1         0      1626         1         0      1629         1         0
      1633         1         0      1636         1         0      1639         1         0
      1642         1         0      1645         1         0      1648         1         0
      1651         1         0      1654         1         0      1657         1         0
      1660         1         0      1663         1         0      1666         1         0
      1669         1         0      1672         1         0      1676         2         0
      1692         2         0      1703         1         0      1711         1         0
      1720         1         0      1723         1         0      1726         1         0
      1729         1         0      1732         1         0      1735         1         0
      1738         1         0      1740         1         0      1742         1         0
      1745         1         0      1748         1         0      1751         1         0
      1754         1         0      1757         1         0      1760         1         0
      1763         1         0      1767         1         0      1770         1         0
      1773         1         0      1776         1         0      1779         1         0
      1782         1         0      1785         1         0      1788         1         0
      1791         1         0      1794         1         0      1797         1         0
      1800         1         0      1803         1         0      1806         1         0
      1810         2         0      1826         2         0      1837         1         0
      1845         1         0      1854         1         0      1857         1         0
      1860         1         0      1863         1         0      1866         1         0
      1869         1         0      1872         1         0      1874         1         0
      1876         1         0      1879         1         0      1882         1         0
      1885         1         0      1888         1         0      1891         1         0
      1894         1         0      1897         1         0      1901         1         0
      1904         1         0      1907         1         0      1910         1         0
      1913         1         0      1916         1         0      1919         1         0
      1922         1         0      1925         1         0      1928         1         0
      1931         1         0      1934         1         0      1937         1         0
      1940         1         0      1944         2         0      1960         2         0
      1971         1         0      1979         1         0      1988         1         0
      1991         1         0      1994         1         0      1997         1         0
      2000         1         0      2003         1         0      2006         1         0
      2008         1         0      2010         1         0      2013         1         0
      2016         1         0      2019         1         0      2022         1         0
      2025         1         0      2028         1         0      2031         1         0
      2035         1         0      2038         1         0      2041         1         0
      2044         1         0      2047         1         0      2050         1         0
      2053         1         0      2056         1         0      2059         1         0
      2062         1         0      2065         1         0      2068         1         0
      2071         1         0      2074         1         0      2078         2         0
      2094         2         0      2105         1         0      2113         1         0
      2122         1         0      2125         1         0      2128         1         0
      2131         1         0      2134         1         0      2137         1         0
      2140         1         0      2142         1         0      2144         1         0
      2147         1         0      2150         1         0      2153         1         0
      2156         1         0      2159         1         0      2162         1         0
      2165         1         0      2169         1         0      2172         1         0
      2175         1         0      2178         1         0      2181         1         0
      2184         1         0      2187         1         0      2190         1         0
      2193         1         0      2196         1         0      2199         1         0
      2202         1         0      2205         1         0      2208         1         0
      2212         2         0      2228         2         0      2239         1         0
      2247         1         0      2256         1         0      2259         1         0
      2262         1         0      2265         1         0      2268         1         0
      2271         1         0      2274         1         0      2276         1         0
      2278         1         0      2281         1         0      2284         1         0
      2287         1         0      2290         1         0      2293         1         0
      2296         1         0      2299         1         0      2303         1         0
      2306         1         0      2309         1         0      2312         1         0
      2315         1         0      2318         1         0      2321         1         0
      2324         1         0      2327         1         0      2330         1         0
      2333         1         0      2336         1         0      2339         1         0
      2342         1         0      2346         2         0      2362         2         0
      2373         1         0      2381         1         0      2390         1         0
      2393         1         0      2396         1         0      2399         1         0
      2402         1         0      2405         1         0      2408         1         0
      2410         1         0      2412         1         0      2415         1         0
      2418         1         0      2421         1         0      2424         1         0
      2427         1         0      2430         1         0      2433         1         0
      2437         1         0      2440         1         0      2443         1         0
      2446         1         0      2449         1         0      2452         1         0
      2455         1         0      2458         1         0      2461         1         0
      2464         1         0      2467         1         0      2470         1         0
      2473         1         0      2476         1         0      2480         2         0
      2496         2         0      2507         1         0      2515         1         0
      2524         1         0      2527         1         0      2530         1         0
      2533         1         0      2536         1         0      2539         1         0
      2542         1         0      2544         1         0      2546         1         0
      2549         1         0      2552         1         0      2555         1         0
      2558         1         0      2561         1         0      2564         1         0
      2567         1         0      2571         1         0      2574         1         0
      2577         1         0      2580         1         0      2583         1         0
      2586         1         0      2589         1         0      2592         1         0
      2595         1         0      2598         1         0      2601         1         0
      2604         1         0      2607         1         0      2610         1         0
      2614         2         0      2630         2         0      2641         1         0
      2649         1         0      2658         1         0      2661         1         0
      2664         1         0      2667         1         0      2670         1         0
      2673         1         0      2676         1         0      2678         1         0
      2680         1         0      2683         1         0      2686         1         0
      2689         1         0      2692         1         0      2695         1         0
      2698         1         0      2701         1         0      2705         1         0
      2708         1         0      2711         1         0      2714         1         0
      2717         1         0      2720         1         0      2723         1         0
      2726         1         0      2729         1         0      2732         1         0
      2735         1         0      2738         1         0      2741         1         0
      2744         1         0      2748         2         0      2764         2         0
      2775         1         0      2783         1         0      2792         1         0
      2795         1         0      2798         1         0      2801         1         0
      2804         1         0      2807         1         0      2810         1         0
      2812         1         0      2814         1         0      2817         1         0
      2820         1         0      2823         1         0      2826         1         0
      2829         1         0      2832         1         0      2835         1         0
      2839         1         0      2842         1         0      2845         1         0
      2848         1         0      2851         1         0      2854         1         0
      2857         1         0      2860         1         0      2863         1         0
      2866         1         0      2869         1         0      2872         1         0
      2875         1         0      2878         1         0      2882         2         0
      2898         2         0      2909         1         0      2917         1         0
      2926         1         0      2929         1         0      2932         1         0
      2935         1         0      2938         1         0      2941         1         0
      2944         1         0      2946         1         0      2948         1         0
      2951         1         0      2954         1         0      2957         1         0
      2960         1         0      2963         1         0      2966         1         0
      2969         1         0      2973         1         0      2976         1         0
      2979         1         0      2982         1         0      2985         1         0
      2988         1         0      2991         1         0      2994         1         0
      2997         1         0      3000         1         0      3003         1         0
      3006         1         0      3009         1         0      3012         1         0
      3016         2         0      3032         2         0      3043         1         0
      3051         1         0      3060         1         0      3063         1         0
      3066         1         0      3069         1         0      3072         1         0
      3075         1         0      3078         1         0      3080         1         0
      3082         1         0      3085         1         0      3088         1         0
      3091         1         0      3094         1         0      3097         1         0
      3100         1         0      3103         1         0      3107         1         0
      3110         1         0      3113         1         0      3116         1         0
      3119         1         0      3122         1         0      3125         1         0
      3128         1         0      3131         1         0      3134         1         0
      3137         1         0      3140         1         0      3143         1         0
      3146         1         0      3150         2         0      3166         2         0
      3177         1         0      3185         1         0      3194         1         0
      3197         1         0      3200         1         0      3203         1         0
      3206         1         0      3209         1         0      3212         1         0
      3214         1         0      3216         1         0      3219         1         0
      3222         1         0      3225         1         0      3228         1         0
      3231         1         0      3234         1         0      3237         1         0
      3241         1         0      3244         1         0      3247         1         0
      3250         1         0      3253         1         0      3256         1         0
      3259         1         0      3262         1         0      3265         1         0
      3268         1         0      3271         1         0      3274         1         0
      3277         1         0      3280         1         0      3284         2         0
      3300         2         0      3311         1         0      3319         1         0
      3328         1         0      3331         1         0      3334         1         0
      3337         1         0      3340         1         0      3343         1         0
      3346         1         0      3348         1         0      3350         1         0
      3353         1         0      3356         1         0      3359         1         0
      3362         1         0      3365         1         0      3368         1         0
      3371         1         0      3375         1         0      3378         1         0
      3381         1         0      3384         1         0      3387         1         0
      3390         1         0      3393         1         0      3396         1         0
      3399         1         0      3402         1         0      3405         1         0
      3408         1         0      3411         1         0      3414         1         0
      3418         2         0      3434         2         0      3445         1         0
      3453         1         0      3462         1         0      3465         1         0
      3468         1         0      3471         1         0      3474         1         0
      3477         1         0      3480         1         0      3482         1         0
      3484         1         0      3487         1         0      3490         1         0
      3493         1         0      3496         1         0      3499         1         0
      3502         1         0      3505         1         0      3509         1         0
      3512         1         0      3515         1         0      3518         1         0
      3521         1         0      3524         1         0      3527         1         0
      3530         1         0      3533         1         0      3536         1         0
      3539         1         0      3542         1         0      3545         1         0
      3548         1         0      3552         2         0      3568         2         0
      3579         1         0      3587         1         0      3596         1         0
      3599         1         0      3602         1         0      3605         1         0
      3608         1         0      3611         1         0      3614         1         0
      3616         1         0      3618         1         0      3621         1         0
      3624         1         0      3627         1         0      3630         1         0
      3633         1         0      3636         1         0      3639         1         0
      3643         1         0      3646         1         0      3649         1         0
      3652         1         0      3655         1         0      3658         1         0
      3661         1         0      3664         1         0      3667         1         0
      3670         1         0      3673         1         0      3676         1         0
      3679         1         0      3682         1         0      3686         2         0
      3702         2         0      3713         1         0      3721         1         0
      3730         1         0      3733         1         0      3736         1         0
      3739         1         0      3742         1         0      3745         1         0
      3748         1         0      3750         1         0      3752         1         0
      3755         1         0      3758         1         0      3761         1         0
      3764         1         0      3767         1         0      3770         1         0
      3773         1         0      3777         1         0      3780         1         0
      3783         1         0      3786         1         0      3789         1         0
      3792         1         0      3795         1         0      3798         1         0
      3801         1         0      3804         1         0      3807         1         0
      3810         1         0      3813         1         0      3816         1         0
      3820         2         0      3836         2         0      3847         1         0
      3855         1         0      3864         1         0      3867         1         0
      3870         1         0      3873         1         0      3876         1         0
      3879         1         0      3882         1         0      3884         1         0
      3886         1         0      3889         1         0      3892         1         0
      3895         1         0      3898         1         0      3901         1         0
      3904         1         0      3907         1         0      3911         1         0
      3914         1         0      3917         1         0      3920         1         0
      3923         1         0      3926         1         0      3929         1         0
      3932         1         0      3935         1         0      3938         1         0
      3941         1         0      3944         1         0      3947         1         0
      3950         1         0      3954         2         0      3970         2         0
      3981         1         0      3989         1         0      3998         1         0
      4001         1         0      4004         1         0      4007         1         0
      4010         1         0      4013         1         0      4016         1         0
      4018         1         0      4020         1         0      4023         1         0
      4026         1         0      4029         1         0      4032         1         0
      4035         1         0      4038         1         0      4041         1         0
      4045         1         0      4048         1         0      4051         1         0
      4054         1         0      4057         1         0      4060         1         0
      4063         1         0      4066         1         0      4069         1         0
      4072         1         0      4075         1         0      4078         1         0
      4081         1         0      4084         1         0      4088         2         0
      4104         2         0      4115         1         0      4123         1         0
      4132         1         0      4135         1         0      4138         1         0
      4141         1         0      4144         1         0      4147         1         0
      4150         1         0      4152         1         0      4154         1         0
      4157         1         0      4160         1         0      4163         1         0
      4166         1         0      4169         1         0      4172         1         0
      4175         1         0      4179         1         0      4182         1         0
      4185         1         0      4188         1         0      4191         1         0
      4194         1         0      4197         1         0      4200         1         0
      4203         1         0      4206         1         0      4209         1         0
      4212         1         0      4215         1         0      4218         1         0
      4222         2         0      4238         2         0      4249         1         0
      4257         1         0      4266         1         0      4269         1         0
      4272         1         0      4275         1         0      4278         1         0
      4281         1         0      4284         1         0      4286         1         0
      4288         1         0      4291         1         0      4294         1         0
      4297         1         0      4300         1         0      4303         1         0
      4306         1         0      4309         1         0      4313         1         0
      4316         1         0      4319         1         0      4322         1         0
      4325         1         0      4328         1         0      4331         1         0
      4334         1         0      4337         1         0      4340         1         0
      4343         1         0      4346         1         0      4349         1         0
      4352         1         0      4356         2         0      4372         2         0
      4383         1         0      4391         1         0      4400         1         0
      4403         1         0      4406         1         0      4409         1         0
      4412         1         0      4415         1         0      4418         1         0
      4420         1         0      4422         1         0      4425         1         0
      4428         1         0      4431         1         0      4434         1         0
      4437         1         0      4440         1         0      4443         1         0
      4447         1         0      4450         1         0      4453         1         0
      4456         1         0      4459         1         0      4462         1         0
      4465         1         0      4468         1         0      4471         1         0
      4474         1         0      4477         1         0      4480         1         0
      4483         1         0      4486         1         0      4490         2         0
      4506         2         0      4517         1         0      4525         1         0
      4534         1         0      4537         1         0      4540         1         0
      4543         1         0      4546         1         0      4549         1         0
      4552         1         0      4554         1         0      4556         1         0
      4559         1         0      4562         1         0      4565         1         0
      4568         1         0      4571         1         0      4574         1         0
      4577         1         0      4581         1         0      4584         1         0
      4587         1         0      4590         1         0      4593         1         0
      4596         1         0      4599         1         0      4602         1         0
      4605         1         0      4608         1         0      4611         1         0
      4614         1         0      4617         1         0      4620         1         0
      4624         2         0      4640         2         0      4651         1         0
      4659         1         0      4668         1         0      4671         1         0
      4674         1         0      4677         1         0      4680         1         0
      4683         1         0      4686         1         0      4688         1         0
      4690         1         0      4693         1         0      4696         1         0
      4699         1         0      4702         1         0      4705         1         0
      4708         1         0      4711         1         0      4715         1         0
      4718         1         0      4721         1         0      4724         1         0
      4727         1         0      4730         1         0      4733         1         0
      4736         1         0      4739         1         0      4742         1         0
      4745         1         0      4748         1         0      4751         1         0
      4754         1         0      4758         2         0      4774         2         0
      4785         1         0      4793         1         0      4802         1         0
      4805         1         0      4808         1         0      4811         1         0
      4814         1         0      4817         1         0      4820         1         0
      4822         1         0      4824         1         0      4827         1         0
      4830         1         0      4833         1         0      4836         1         0
      4839         1         0      4842         1         0      4845         1         0
      4849         1         0      4852         1         0      4855         1         0
      4858         1         0      4861         1         0      4864         1         0
      4867         1         0      4870         1         0      4873         1         0
      4876         1         0      4879         1         0      4882         1         0
      4885         1         0      4888         1         0      4892         2         0
      4908         2         0      4919         1         0      4927         1         0
      4936         1         0      4939         1         0      4942         1         0
      4945         1         0      4948         1         0      4951         1         0
      4954         1         0      4956         1         0      4958         1         0
      4961         1         0      4964         1         0      4967         1         0
      4970         1         0      4973         1         0      4976         1         0
      4979         1         0      4983         1         0      4986         1         0
      4989         1         0      4992         1         0      4995         1         0
      4998         1         0      5001         1         0      5004         1         0
      5007         1         0      5010         1         0      5013         1         0
      5016         1         0      5019         1         0      5022         1         0
      5026         2         0      5042         2         0      5053         1         0
      5061         1         0      5070         1         0      5073         1         0
      5076         1         0      5079         1         0      5082         1         0
      5085         1         0      5088         1         0      5090         1         0
      5092         1         0      5095         1         0      5098         1         0
      5101         1         0      5104         1         0      5107         1         0
      5110         1         0      5113         1         0      5117         1         0
      5120         1         0      5123         1         0      5126         1         0
      5129         1         0      5132         1         0      5135         1         0
      5138         1         0      5141         1         0      5144         1         0
      5147         1         0      5150         1         0      5153         1         0
      5156         1         0      5160         2         0      5176         2         0
      5187         1         0      5195         1         0      5204         1         0
      5207         1         0      5210         1         0      5213         1         0
      5216         1         0      5219         1         0      5222         1         0
      5224         1         0      5226         1         0      5229         1         0
      5232         1         0      5235         1         0      5238         1         0
      5241         1         0      5244         1         0      5247         1         0
      5251         1         0      5254         1         0      5257         1         0
      5260         1         0      5263         1         0      5266         1         0
      5269         1         0      5272         1         0      5275         1         0
      5278         1         0      5281         1         0      5284         1         0
      5287         1         0      5290         1         0      5294         2         0
      5310         2         0      5321         1         0      5329         1         0
      5338         1         0      5341         1         0      5344         1         0
      5347         1         0      5350         1         0      5353         1         0
      5356         1         0      5358         1         0      5360         1         0
      5363         1         0      5366         1         0      5369         1         0
      5372         1         0      5375         1         0      5378         1         0
      5381         1         0      5385         1         0      5388         1         0
      5391         1         0      5394         1         0      5397         1         0
      5400         1         0      5403         1         0      5406         1         0
      5409         1         0      5412         1         0      5415         1         0
      5418         1         0      5421         1         0      5424         1         0
      5428         2         0      5444         2         0      5455         1         0
      5463         1         0      5472         1         0      5475         1         0
      5478         1         0      5481         1         0      5484         1         0
      5487         1         0      5490         1         0      5492         1         0
      5494         1         0      5497         1         0      5500         1         0
      5503         1         0      5506         1         0      5509         1         0
      5512         1         0      5515         1         0      5519         1         0
      5522         1         0      5525         1         0      5528         1         0
      5531         1         0      5534         1         0      5537         1         0
      5540         1         0      5543         1         0      5546         1         0
      5549         1         0      5552         1         0      5555         1         0
      5558         1         0      5562         2         0      5578         2         0
      5589         1         0      5597         1         0      5606         1         0
      5609         1         0      5612         1         0      5615         1         0
      5618         1         0      5621         1         0      5624         1         0
      5626         1         0      5628         1         0      5631         1         0
      5634         1         0      5637         1         0      5640         1         0
      5643         1         0      5646         1         0      5649         1         0
      5653         1         0      5656         1         0      5659         1         0
      5662         1         0      5665         1         0      5668         1         0
      5671         1         0      5674         1         0      5677         1         0
      5680         1         0      5683         1         0      5686         1         0
      5689         1         0      5692         1         0      5696         2         0
      5712         2         0      5723         1         0      5731         1         0
      5740         1         0      5743         1         0      5746         1         0
      5749         1         0      5752         1         0      5755         1         0
      5758         1         0      5760         1         0      5762         1         0
      5765         1         0      5768         1         0      5771         1         0
      5774         1         0      5777         1         0      5780         1         0
      5783         1         0      5787         1         0      5790         1         0
      5793         1         0      5796         1         0      5799         1         0
      5802         1         0      5805         1         0      5808         1         0
      5811         1         0      5814         1         0      5817         1         0
      5820         1         0      5823         1         0      5826         1         0
      5830         2         0      5846         2         0      5857         1         0
      5865         1         0      5874         1         0      5877         1         0
      5880         1         0      5883         1         0      5886         1         0
      5889         1         0      5892         1         0      5894         1         0
      5896         1         0      5899         1         0      5902         1         0
      5905         1         0      5908         1         0      5911         1         0
      5914         1         0      5917         1         0      5921         1         0
      5924         1         0      5927         1         0      5930         1         0
      5933         1         0      5936         1         0      5939         1         0
      5942         1         0      5945         1         0      5948         1         0
      5951         1         0      5954         1         0      5957         1         0
      5960         1         0      5964         2         0      5980         2         0
      5991         1         0      5999         1         0      6008         1         0
      6011         1         0      6014         1         0      6017         1         0
      6020         1         0      6023         1         0      6026         1         0
      6028         1         0      6030         1         0      6033         1         0
      6036         1         0      6039         1         0      6042         1         0
      6045         1         0      6048         1         0      6051         1         0
      6055         1         0      6058         1         0      6061         1         0
      6064         1         0      6067         1         0      6070         1         0
      6073         1         0      6076         1         0      6079         1         0
      6082         1         0      6085         1         0      6088         1         0
      6091         1         0      6094         1         0      6098         2         0
      6114         2         0      6125         1         0      6133         1         0
      6142         1         0      6145         1         0      6148         1         0
      6151         1         0      6154         1         0      6157         1         0
      6160         1         0      6162         1         0      6164         1         0
      6167         1         0      6170         1         0      6173         1         0
      6176         1         0      6179         1         0      6182         1         0
      6185         1         0      6189         1         0      6192         1         0
      6195         1         0      6198         1         0      6201         1         0
      6204         1         0      6207         1         0      6210         1         0
      6213         1         0      6216         1         0      6219         1         0
      6222         1         0      6225         1         0      6228         1         0
      6232         2         0      6248         2         0      6259         1         0
      6267         1         0      6276         1         0      6279         1         0
      6282         1         0      6285         1         0      6288         1         0
      6291         1         0      6294         1         0      6296         1         0
      6298         1         0      6301         1         0      6304         1         0
      6307         1         0      6310         1         0      6313         1         0
      6316         1         0      6319         1         0      6323         1         0
      6326         1         0      6329         1         0      6332         1         0
      6335         1         0      6338         1         0      6341         1         0
      6344         1         0      6347         1         0      6350         1         0
      6353         1         0      6356         1         0      6359         1         0
      6362         1         0      6366         2         0      6382         2         0
      6393         1         0      6401         1         0      6410         1         0
      6413         1         0      6416         1         0      6419         1         0
      6422         1         0      6425         1         0      6428         1         0
      6430         1         0      6432         1         0      6435         1         0
      6438         1         0      6441         1         0      6444         1         0
      6447         1         0      6450         1         0      6453         1         0
      6457         1         0      6460         1         0      6463         1         0
      6466         1         0      6469         1         0      6472         1         0
      6475         1         0      6478         1         0      6481         1         0
      6484         1         0      6487         1         0      6490         1         0
      6493         1         0      6496         1         0      6500         2         0
      6516         2         0      6527         1         0      6535         1         0
      6544         1         0      6547         1         0      6550         1         0
      6553         1         0      6556         1         0      6559         1         0
      6562         1         0      6564         1         0      6566         1         0
      6569         1         0      6572         1         0      6575         1         0
      6578         1         0      6581         1         0      6584         1         0
      6587         1         0      6591         1         0      6594         1         0
      6597         1         0      6600         1         0      6603         1         0
      6606         1         0      6609         1         0      6612         1         0
      6615         1         0      6618         1         0      6621         1         0
      6624         1         0      6627         1         0      6630         1         0
      6634         2         0      6650         2         0      6661         1         0
      6669         1         0      6678         1         0      6681         1         0
      6684         1         0      6687         1         0      6690         1         0
      6693         1         0      6696         1         0      6698         1         0
      6700         1         0      6703         1         0      6706         1         0
      6709         1         0      6712         1         0      6715         1         0
      6718         1         0      6721         1         0      6725         1         0
      6728         1         0      6731         1         0      6734         1         0
      6737         1         0      6740         1         0      6743         1         0
      6746         1         0      6749         1         0      6752         1         0
      6755         1         0      6758         1         0      6761         1         0
      6764         1         0      6768         2         0      6784         2         0
      6795         1         0      6803         1         0      6812         1         0
      6815         1         0      6818         1         0      6821         1         0
      6824         1         0      6827         1         0      6830         1         0
      6832         1         0      6834         1         0      6837         1         0
      6840         1         0      6843         1         0      6846         1         0
      6849         1         0      6852         1         0      6855         1         0
      6859         1         0      6862         1         0      6865         1         0
      6868         1         0      6871         1         0      6874         1         0
      6877         1         0      6880         1         0      6883         1         0
      6886         1         0      6889         1         0      6892         1         0
      6895         1         0      6898         1         0      6902         2         0
      6918         2         0      6929         1         0      6937         1         0
      6946         1         0      6949         1         0      6952         1         0
      6955         1         0      6958         1         0      6961         1         0
      6964         1         0      6966         1         0      6968         1         0
      6971         1         0      6974         1         0      6977         1         0
      6980         1         0      6983         1         0      6986         1         0
      6989         1         0      6993         1         0      6996         1         0
      6999         1         0      7002         1         0      7005         1         0
      7008         1         0      7011         1         0      7014         1         0
      7017         1         0      7020         1         0      7023         1         0
      7026         1         0      7029         1         0      7032         1         0
      7036         2         0      7052         2         0      7063         1         0
      7071         1         0      7080         1         0      7083         1         0
      7086         1         0      7089         1         0      7092         1         0
      7095         1         0      7098         1         0      7100         1         0
      7102         1         0      7105         1         0      7108         1         0
      7111         1         0      7114         1         0      7117         1         0
      7120         1         0      7123         1         0      7127         1         0
      7130         1         0      7133         1         0      7136         1         0
      7139         1         0      7142         1         0      7145         1         0
      7148         1         0      7151         1         0      7154         1         0
      7157         1         0      7160         1         0      7163         1         0
      7166         1         0      7170         2         0      7186         2         0
      7197         1         0      7205         1         0      7214         1         0
      7217         1         0      7220         1         0      7223         1         0
      7226         1         0      7229         1         0      7232         1         0
      7234         1         0      7236         1         0      7239         1         0
      7242         1         0      7245         1         0      7248         1         0
      7251         1         0      7254         1         0      7257         1         0
      7261         1         0      7264         1         0      7267         1         0
      7270         1         0      7273         1         0      7276         1         0
      7279         1         0      7282         1         0      7285         1         0
      7288         1         0      7291         1         0      7294         1         0
      7297         1         0      7300         1         0      7304         2         0
      7320         2         0      7331         1         0      7339         1         0
      7348         1         0      7351         1         0      7354         1         0
      7357         1         0      7360         1         0      7363         1         0
      7366         1         0      7368         1         0      7370         1         0
      7373         1         0      7376         1         0      7379         1         0
      7382         1         0      7385         1         0      7388         1         0
      7391         1         0      7395         1         0      7398         1         0
      7401         1         0      7404         1         0      7407         1         0
      7410         1         0      7413         1         0      7416         1         0
      7419         1         0      7422         1         0      7425         1         0
      7428         1         0      7431         1         0      7434         1         0
      7438         2         0      7454         2         0      7465         1         0
      7473         1         0      7482         1         0      7485         1         0
      7488         1         0      7491         1         0      7494         1         0
      7497         1         0      7500         1         0      7502         1         0
      7504         1         0      7507         1         0      7510         1         0
      7513         1         0      7516         1         0      7519         1         0
      7522         1         0      7525         1         0      7529         1         0
      7532         1         0      7535         1         0      7538         1         0
      7541         1         0      7544         1         0      7547         1         0
      7550         1         0      7553         1         0      7556         1         0
      7559         1         0      7562         1         0      7565         1         0
      7568         1         0      7572         2         0      7588         2         0
      7599         1         0      7607         1         0      7616         1         0
      7619         1         0      7622         1         0      7625         1         0
      7628         1         0      7631         1         0      7634         1         0
      7636         1         0      7638         1         0      7641         1         0
      7644         1         0      7647         1         0      7650         1         0
      7653         1         0      7656         1         0      7659         1         0
      7663         1         0      7666         1         0      7669         1         0
      7672         1         0      7675         1         0      7678         1         0
      7681         1         0      7684         1         0      7687         1         0
      7690         1         0      7693         1         0      7696         1         0
      7699         1         0      7702         1         0      7706         2         0
      7722         2         0      7733         1         0      7741         1         0
      7750         1         0      7753         1         0      7756         1         0
      7759         1         0      7762         1         0      7765         1         0
      7768         1         0      7770         1         0      7772         1         0
      7775         1         0      7778         1         0      7781         1         0
      7784         1         0      7787         1         0      7790         1         0
      7793         1         0      7797         1         0      7800         1         0
      7803         1         0      7806         1         0      7809         1         0
      7812         1         0      7815         1         0      7818         1         0
      7821         1         0      7824         1         0      7827         1         0
      7830         1         0      7833         1         0      7836         1         0
      7840         2         0      7856         2         0      7867         1         0
      7875         1         0      7884         1         0      7887         1         0
      7890         1         0      7893         1         0      7896         1         0
      7899         1         0      7902         1         0      7904         1         0
      7906         1         0      7909         1         0      7912         1         0
      7915         1         0      7918         1         0      7921         1         0
      7924         1         0      7927         1         0      7931         1         0
      7934         1         0      7937         1         0      7940         1         0
      7943         1         0      7946         1         0      7949         1         0
      7952         1         0      7955         1         0      7958         1         0
      7961         1         0      7964         1         0      7967         1         0
      7970         1         0      7974         2         0      7990         2         0
      8001         1         0      8009         1         0      8018         1         0
      8021         1         0      8024         1         0      8027         1         0
      8030         1         0      8033         1         0      8036         1         0
      8038         1         0      8040         1         0      8043         1         0
      8046         1         0      8049         1         0      8052         1         0
      8055         1         0      8058         1         0      8061         1         0
      8065         1         0      8068         1         0      8071         1         0
      8074         1         0      8077         1         0      8080         1         0
      8083         1         0      8086         1         0      8089         1         0
      8092         1         0      8095         1         0      8098         1         0
      8101         1         0      8104         1         0      8108         2         0
      8124         2         0      8135         1         0      8143         1         0
      8152         1         0      8155         1         0      8158         1         0
      8161         1         0      8164         1         0      8167         1         0
      8170         1         0      8172         1         0      8174         1         0
      8177         1         0      8180         1         0      8183         1         0
      8186         1         0      8189         1         0      8192         1         0
      8195         1         0      8199         1         0      8202         1         0
      8205         1         0      8208         1         0      8211         1         0
      8214         1         0      8217         1         0      8220         1         0
      8223         1         0      8226         1         0      8229         1         0
      8232         1         0      8235         1         0      8238         1         0
      8242         2         0      8258         2         0      8269         1         0
      8277         1         0      8286         1         0      8289         1         0
      8292         1         0      8295         1         0      8298         1         0
      8301         1         0      8304         1         0      8306         1         0
      8308         1         0      8311         1         0      8314         1         0
      8317         1         0      8320         1         0      8323         1         0
      8326         1         0      8329         1         0      8333         1         0
      8336         1         0      8339         1         0      8342         1         0
      8345         1         0      8348         1         0      8351         1         0
      8354         1         0      8357         1         0      8360         1         0
      8363         1         0      8366         1         0      8369         1         0
      8372         1         0      8376         2         0      8392         2         0
      8403         1         0      8411         1         0      8420         1         0
      8423         1         0      8426         1         0      8429         1         0
      8432         1         0      8435         1         0      8438         1         0
      8440         1         0      8442         1         0      8445         1         0
      8448         1         0      8451         1         0      8454         1         0
      8457         1         0      8460         1         0      8463         1         0
      8467         1         0      8470         1         0      8473         1         0
      8476         1         0      8479         1         0      8482         1         0
      8485         1         0      8488         1         0      8491         1         0
      8494         1         0      8497         1         0      8500         1         0
      8503         1         0      8506         1         0      8510         2         0
      8526         2         0      8537         1         0      8545         1         0
      8554         1         0      8557         1         0      8560         1         0
      8563         1         0      8566         1         0      8569         1         0
      8572         1         0      8574         1         0      8576         1         0
      8579         1         0      8582         1         0      8585         1         0
      8588         1         0      8591         1         0      8594         1         0
      8597         1         0      8601         1         0      8604         1         0
      8607         1         0      8610         1         0      8613         1         0
      8616         1         0      8619         1         0      8622         1         0
      8625         1         0      8628         1         0      8631         1         0
      8634         1         0      8637         1         0      8640         1         0
      8644         2         0      8660         2         0      8671         1         0
      8679         1         0      8688         1         0      8691         1         0
      8694         1         0      8697         1         0      8700         1         0
      8703         1         0      8706         1         0      8708         1         0
      8710         1         0      8713         1         0      8716         1         0
      8719         1         0      8722         1         0      8725         1         0
      8728         1         0      8731         1         0      8735         1         0
      8738         1         0      8741         1         0      8744         1         0
      8747         1         0      8750         1         0      8753         1         0
      8756         1         0      8759         1         0      8762         1         0
      8765         1         0      8768         1         0      8771         1         0
      8774         1         0      8778         2         0      8794         2         0
      8805         1         0      8813         1         0      8822         1         0
      8825         1         0      8828         1         0      8831         1         0
      8834         1         0      8837         1         0      8840         1         0
      8842         1         0      8844         1         0      8847         1         0
      8850         1         0      8853         1         0      8856         1         0
      8859         1         0      8862         1         0      8865         1         0
      8869         1         0      8872         1         0      8875         1         0
      8878         1         0      8881         1         0      8884         1         0
      8887         1         0      8890         1         0      8893         1         0
      8896         1         0      8899         1         0      8902         1         0
      8905         1         0      8908         1         0      8912         2         0
      8928         2         0      8939         1         0      8947         1         0
      8956         1         0      8959         1         0      8962         1         0
      8965         1         0      8968         1         0      8971         1         0
      8974         1         0      8976         1         0      8978         1         0
      8981         1         0      8984         1         0      8987         1         0
      8990         1         0      8993         1         0      8996         1         0
      8999         1         0      9003         1         0      9006         1         0
      9009         1         0      9012         1         0      9015         1         0
      9018         1         0      9021         1         0      9024         1         0
      9027         1         0      9030         1         0      9033         1         0
      9036         1         0      9039         1         0      9042         1         0
      9046         2         0      9062         2         0      9073         1         0
      9081         1         0      9090         1         0      9093         1         0
      9096         1         0      9099         1         0      9102         1         0
      9105         1         0      9108         1         0      9110         1         0
      9112         1         0      9115         1         0      9118         1         0
      9121         1         0      9124         1         0      9127         1         0
      9130         1         0      9133         1         0      9137         1         0
      9140         1         0      9143         1         0      9146         1         0
      9149         1         0      9152         1         0      9155         1         0
      9158         1         0      9161         1         0      9164         1         0
      9167         1         0      9170         1         0      9173         1         0
      9176         1         0      9180         2         0      9196         2         0
      9207         1         0      9215         1         0      9224         1         0
      9227         1         0      9230         1         0      9233         1         0
      9236         1         0      9239         1         0      9242         1         0
      9244         1         0      9246         1         0      9249         1         0
      9252         1         0      9255         1         0      9258         1         0
      9261         1         0      9264         1         0      9267         1         0
      9271         1         0      9274         1         0      9277         1         0
      9280         1         0      9283         1         0      9286         1         0
      9289         1         0      9292         1         0      9295         1         0
      9298         1         0      9301         1         0      9304         1         0
      9307         1         0      9310         1         0      9314         2         0
      9330         2         0      9341         1         0      9349         1         0
      9358         1         0      9361         1         0      9364         1         0
      9367         1         0      9370         1         0      9373         1         0
      9376         1         0      9378         1         0      9380         1         0
      9383         1         0      9386         1         0      9389         1         0
      9392         1         0      9395         1         0      9398         1         0
      9401         1         0      9405         1         0      9408         1         0
      9411         1         0      9414         1         0      9417         1         0
      9420         1         0      9423         1         0      9426         1         0
      9429         1         0      9432         1         0      9435         1         0
      9438         1         0      9441         1         0      9444         1         0
      9448         2         0      9464         2         0      9475         1         0
      9483         1         0      9492         1         0      9495         1         0
      9498         1         0      9501         1         0      9504         1         0
      9507         1         0      9510         1         0      9512         1         0
      9514         1         0      9517         1         0      9520         1         0
      9523         1         0      9526         1         0      9529         1         0
      9532         1         0      9535         1         0      9539         1         0
      9542         1         0      9545         1         0      9548         1         0
      9551         1         0      9554         1         0      9557         1         0
      9560         1         0      9563         1         0      9566         1         0
      9569         1         0      9572         1         0      9575         1         0
      9578         1         0      9582         2         0      9598         2         0
      9609         1         0      9617         1         0      9626         1         0
      9629         1         0      9632         1         0      9635         1         0
      9638         1         0      9641         1         0      9644         1         0
      9646         1         0      9648         1         0      9651         1         0
      9654         1         0      9657         1         0      9660         1         0
      9663         1         0      9666         1         0      9669         1         0
      9673         1         0      9676         1         0      9679         1         0
      9682         1         0      9685         1         0      9688         1         0
      9691         1         0      9694         1         0      9697         1         0
      9700         1         0      9703         1         0      9706         1         0
      9709         1         0      9712         1         0      9716         2         0
      9732         2         0      9743         1         0      9751         1         0
      9760         1         0      9763         1         0      9766         1         0
      9769         1         0      9772         1         0      9775         1         0
      9778         1         0      9780         1         0      9782         1         0
      9785         1         0      9788         1         0      9791         1         0
      9794         1         0      9797         1         0      9800         1         0
      9803         1         0      9807         1         0      9810         1         0
      9813         1         0      9816         1         0      9819         1         0
      9822         1         0      9825         1         0      9828         1         0
      9831         1         0      9834         1         0      9837         1         0
      9840         1         0      9843         1         0      9846         1         0
      9850         2         0      9866         2         0      9877         1         0
      9885         1         0      9894         1         0      9897         1         0
      9900         1         0      9903         1         0      9906         1         0
      9909         1         0      9912         1         0      9914         1         0
      9916         1         0      9919         1         0      9922         1         0
      9925         1         0      9928         1         0      9931         1         0
      9934         1         0      9937         1         0      9941         1         0
      9944         1         0      9947         1         0      9950         1         0
      9953         1         0      9956         1         0      9959         1         0
      9962         1         0      9965         1         0      9968         1         0
      9971         1         0      9974         1         0      9977         1         0
      9980         1         0      9984         2         0     10000         2         0
     10011         1         0     10019         1         0     10028         1         0
     10031         1         0     10034         1         0     10037         1         0
     10040         1         0     10043         1         0     10046         1         0
     10048         1         0     10050         1         0     10053         1         0
     10056         1         0     10059         1         0     10062         1         0
     10065         1         0     10068         1         0     10071         1         0
     10075         1         0     10078         1         0     10081         1         0
     10084         1         0     10087         1         0     10090         1         0
     10093         1         0     10096         1         0     10099         1         0
     10102         1         0     10105         1         0     10108         1         0
     10111         1         0     10114         1         0     10118         2         0
     10134         2         0     10145         1         0     10153         1         0
     10162         1         0     10165         1         0     10168         1         0
     10171         1         0     10174         1         0     10177         1         0
     10180         1         0     10182         1         0     10184         1         0
     10187         1         0     10190         1         0     10193         1         0
     10196         1         0     10199         1         0     10202         1         0
     10205         1         0     10209         1         0     10212         1         0
     10215         1         0     10218         1         0     10221         1         0
     10224         1         0     10227         1         0     10230         1         0
     10233         1         0     10236         1         0     10239         1         0
     10242         1         0     10245         1         0     10248         1         0
     10252         2         0     10268         2         0     10279         1         0
     10287         1         0     10296         1         0     10299         1         0
     10302         1         0     10305         1         0     10308         1         0
     10311         1         0     10314         1         0     10316         1         0
     10318         1         0     10321         1         0     10324         1         0
     10327         1         0     10330         1         0     10333         1         0
     10336         1         0     10339         1         0     10343         1         0
     10346         1         0     10349         1         0     10352         1         0
     10355         1         0     10358         1         0     10361         1         0
     10364         1         0     10367         1         0     10370         1         0
     10373         1         0     10376         1         0     10379         1         0
     10382         1         0     10386         2         0     10402         2         0
     10413         1         0     10421         1         0     10430         1         0
     10433         1         0     10436         1         0     10439         1         0
     10442         1         0     10445         1         0     10448         1         0
     10450         1         0     10452         1         0     10455         1         0
     10458         1         0     10461         1         0     10464         1         0
     10467         1         0     10470         1         0     10473         1         0
     10477         1         0     10480         1         0     10483         1         0
     10486         1         0     10489         1         0     10492         1         0
     10495         1         0     10498         1         0     10501         1         0
     10504         1         0     10507         1         0     10510         1         0
     10513         1         0     10516         1         0     10520         2         0
     10536         2         0     10547         1         0     10555         1         0
     10564         1         0     10567         1         0     10570         1         0
     10573         1         0     10576         1         0     10579         1         0
     10582         1         0     10584         1         0     10586         1         0
     10589         1         0     10592         1         0     10595         1         0
     10598         1         0     10601         1         0     10604         1         0
     10607         1         0     10611         1         0     10614         1         0
     10617         1         0     10620         1         0     10623         1         0
     10626         1         0     10629         1         0     10632         1         0
     10635         1         0     10638         1         0     10641         1         0
     10644         1         0     10647         1         0     10650         1         0
     10654         2         0     10670         2         0     10681         1         0
     10689         1         0     10698         1         0     10701         1         0
     10704         1         0     10707         1         0     10710         1         0
     10713         1         0     10716         1         0     10718         1         0
     10720         1         0     10723         1         0     10726         1         0
     10729         1         0     10732         1         0     10735         1         0
     10738         1         0     10741         1         0     10745         1         0
     10748         1         0     10751         1         0     10754         1         0
     10757         1         0     10760         1         0     10763         1         0
     10766         1         0     10769         1         0     10772         1         0
     10775         1         0     10778         1         0     10781         1         0
     10784         1         0     10788         2         0     10804         2         0
     10815         1         0     10823         1         0     10832         1         0
     10835         1         0     10838         1         0     10841         1         0
     10844         1         0     10847         1         0     10850         1         0
     10852         1         0     10854         1         0     10857         1         0
     10860         1         0     10863         1         0     10866         1         0
     10869         1         0     10872         1         0     10875         1         0
     10879         1         0     10882         1         0     10885         1         0
     10888         1         0     10891         1         0     10894         1         0
     10897         1         0     10900         1         0     10903         1         0
     10906         1         0     10909         1         0     10912         1         0
     10915         1         0     10918         1         0     10922         2         0
     10938         2         0     10949         1         0     10957         1         0
     10966         1         0     10969         1         0     10972         1         0
     10975         1         0     10978         1         0     10981         1         0
     10984         1         0     10986         1         0     10988         1         0
     10991         1         0     10994         1         0     10997         1         0
     11000         1         0     11003         1         0     11006         1         0
     11009         1         0     11013         1         0     11016         1         0
     11019         1         0     11022         1         0     11025         1         0
     11028         1         0     11031         1         0     11034         1         0
     11037         1         0     11040         1         0     11043         1         0
     11046         1         0     11049         1         0     11052         1         0
     11056         2         0     11072         2         0     11083         1         0
     11091         1         0     11100         1         0     11103         1         0
     11106         1         0     11109         1         0     11112         1         0
     11115         1         0     11118         1         0     11120         1         0
     11122         1         0     11125         1         0     11128         1         0
     11131         1         0     11134         1         0     11137         1         0
     11140         1         0     11143         1         0     11147         1         0
     11150         1         0     11153         1         0     11156         1         0
     11159         1         0     11162         1         0     11165         1         0
     11168         1         0     11171         1         0     11174         1         0
     11177         1         0     11180         1         0     11183         1         0
     11186         1         0     11190         2         0     11206         2         0
     11217         1         0     11225         1         0     11234         1         0
     11237         1         0     11240         1         0     11243         1         0
     11246         1         0     11249         1         0     11252         1         0
     11254         1         0     11256         1         0     11259         1         0
     11262         1         0     11265         1         0     11268         1         0
     11271         1         0     11274         1         0     11277         1         0
     11281         1         0     11284         1         0     11287         1         0
     11290         1         0     11293         1         0     11296         1         0
     11299         1         0     11302         1         0     11305         1         0
     11308         1         0     11311         1         0     11314         1         0
     11317         1         0     11320         1         0     11324         2         0
     11340         2         0     11351         1         0     11359         1         0
     11368         1         0     11371         1         0     11374         1         0
     11377         1         0     11380         1         0     11383         1         0
     11386         1         0     11388         1         0     11390         1         0
     11393         1         0     11396         1         0     11399         1         0
     11402         1         0     11405         1         0     11408         1         0
     11411         1         0     11415         1         0     11418         1         0
     11421         1         0     11424         1         0     11427         1         0
     11430         1         0     11433         1         0     11436         1         0
     11439         1         0     11442         1         0     11445         1         0
     11448         1         0     11451         1         0     11454         1         0
     11458         2         0     11474         2         0     11485         1         0
     11493         1         0     11502         1         0     11505         1         0
     11508         1         0     11511         1         0     11514         1         0
     11517         1         0     11520         1         0     11522         1         0
     11524         1         0     11527         1         0     11530         1         0
     11533         1         0     11536         1         0     11539         1         0
     11542         1         0     11545         1         0     11549         1         0
     11552         1         0     11555         1         0     11558         1         0
     11561         1         0     11564         1         0     11567         1         0
     11570         1         0     11573         1         0     11576         1         0
     11579         1         0     11582         1         0     11585         1         0
     11588         1         0     11592         2         0     11608         2         0
     11619         1         0     11627         1         0     11636         1         0
     11639         1         0     11642         1         0     11645         1         0
     11648         1         0     11651         1         0     11654         1         0
     11656         1         0     11658         1         0     11661         1         0
     11664         1         0     11667         1         0     11670         1         0
     11673         1         0     11676         1         0     11679         1         0
     11683         1         0     11686         1         0     11689         1         0
     11692         1         0     11695         1         0     11698         1         0
     11701         1         0     11704         1         0     11707         1         0
     11710         1         0     11713         1         0     11716         1         0
     11719         1         0     11722         1         0     11726         2         0
     11742         2         0     11753         1         0     11761         1         0
     11770         1         0     11773         1         0     11776         1         0
     11779         1         0     11782         1         0     11785         1         0
     11788         1         0     11790         1         0     11792         1         0
     11795         1         0     11798         1         0     11801         1         0
     11804         1         0     11807         1         0     11810         1         0
     11813         1         0     11817         1         0     11820         1         0
     11823         1         0     11826         1         0     11829         1         0
     11832         1         0     11835         1         0     11838         1         0
     11841         1         0     11844         1         0     11847         1         0
     11850         1         0     11853         1         0     11856         1         0
     11860         2         0     11876         2         0     11887         1         0
     11895         1         0     11904         1         0     11907         1         0
     11910         1         0     11913         1         0     11916         1         0
     11919         1         0     11922         1         0     11924         1         0
     11926         1         0     11929         1         0     11932         1         0
     11935         1         0     11938         1         0     11941         1         0
     11944         1         0     11947         1         0     11951         1         0
     11954         1         0     11957         1         0     11960         1         0
     11963         1         0     11966         1         0     11969         1         0
     11972         1         0     11975         1         0     11978         1         0
     11981         1         0     11984         1         0     11987         1         0
     11990         1         0     11994         2         0     12010         2         0
     12021         1         0     12029         1         0     12038         1         0
     12041         1         0     12044         1         0     12047         1         0
     12050         1         0     12053         1         0     12056         1         0
     12058         1         0     12060         1         0     12063         1         0
     12066         1         0     12069         1         0     12072         1         0
     12075         1         0     12078         1         0     12081         1         0
     12085         1         0     12088         1         0     12091         1         0
     12094         1         0     12097         1         0     12100         1         0
     12103         1         0     12106         1         0     12109         1         0
     12112         1         0     12115         1         0     12118         1         0
     12121         1         0     12124         1         0     12128         2         0
     12144         2         0     12155         1         0     12163         1         0
     12172         1         0     12175         1         0     12178         1         0
     12181         1         0     12184         1         0     12187         1         0
     12190         1         0     12192         1         0     12194         1         0
     12197         1         0     12200         1         0     12203         1         0
     12206         1         0     12209         1         0     12212         1         0
     12215         1         0     12219         1         0     12222         1         0
     12225         1         0     12228         1         0     12231         1         0
     12234         1         0     12237         1         0     12240         1         0
     12243         1         0     12246         1         0     12249         1         0
     12252         1         0     12255         1         0     12258         1         0
     12262         2         0     12278         2         0     12289         1         0
     12297         1         0     12306         1         0     12309         1         0
     12312         1         0     12315         1         0     12318         1         0
     12321         1         0     12324         1         0     12326         1         0
     12328         1         0     12331         1         0     12334         1         0
     12337         1         0     12340         1         0     12343         1         0
     12346         1         0     12349         1         0     12353         1         0
     12356         1         0     12359         1         0     12362         1         0
     12365         1         0     12368         1         0     12371         1         0
     12374         1         0     12377         1         0     12380         1         0
     12383         1         0     12386         1         0     12389         1         0
     12392         1         0     12396         2         0     12412         2         0
     12423         1         0     12431         1         0     12440         1         0
     12443         1         0     12446         1         0     12449         1         0
     12452         1         0     12455         1         0     12458         1         0
     12460         1         0     12462         1         0     12465         1         0
     12468         1         0     12471         1         0     12474         1         0
     12477         1         0     12480         1         0     12483         1         0
     12487         1         0     12490         1         0     12493         1         0
     12496         1         0     12499         1         0     12502         1         0
     12505         1         0     12508         1         0     12511         1         0
     12514         1         0     12517         1         0     12520         1         0
     12523         1         0     12526         1         0     12530         2         0
     12546         2         0     12557         1         0     12565         1         0
     12574         1         0     12577         1         0     12580         1         0
     12583         1         0     12586         1         0     12589         1         0
     12592         1         0     12594         1         0     12596         1         0
     12599         1         0     12602         1         0     12605         1         0
     12608         1         0     12611         1         0     12614         1         0
     12617         1         0     12621         1         0     12624         1         0
     12627         1         0     12630         1         0     12633         1         0
     12636         1         0     12639         1         0     12642         1         0
     12645         1         0     12648         1         0     12651         1         0
     12654         1         0     12657         1         0     12660         1         0
     12664         2         0     12680         2         0     12691         1         0
     12699         1         0     12708         1         0     12711         1         0
     12714         1         0     12717         1         0     12720         1         0
     12723         1         0     12726         1         0     12728         1         0
     12730         1         0     12733         1         0     12736         1         0
     12739         1         0     12742         1         0     12745         1         0
     12748         1         0     12751         1         0     12755         1         0
     12758         1         0     12761         1         0     12764         1         0
     12767         1         0     12770         1         0     12773         1         0
     12776         1         0     12779         1         0     12782         1         0
     12785         1         0     12788         1         0     12791         1         0
     12794         1         0     12798         2         0     12814         2         0
     12825         1         0     12833         1         0     12842         1         0
     12845         1         0     12848         1         0     12851         1         0
     12854         1         0     12857         1         0     12860         1         0
     12862         1         0     12864         1         0     12867         1         0
     12870         1         0     12873         1         0     12876         1         0
     12879         1         0     12882         1         0     12885         1         0
     12889         1         0     12892         1         0     12895         1         0
     12898         1         0     12901         1         0     12904         1         0
     12907         1         0     12910         1         0     12913         1         0
     12916         1         0     12919         1         0     12922         1         0
     12925         1         0     12928         1         0     12932         2         0
     12948         2         0     12959         1         0     12967         1         0
     12976         1         0     12979         1         0     12982         1         0
     12985         1         0     12988         1         0     12991         1         0
     12994         1         0     12996         1         0     12998         1         0
     13001         1         0     13004         1         0     13007         1         0
     13010         1         0     13013         1         0     13016         1         0
     13019         1         0     13023         1         0     13026         1         0
     13029         1         0     13032         1         0     13035         1         0
     13038         1         0     13041         1         0     13044         1         0
     13047         1         0     13050         1         0     13053         1         0
     13056         1         0     13059         1         0     13062         1         0
     13066         2         0     13082         2         0     13093         1         0
     13101         1         0     13110         1         0     13113         1         0
     13116         1         0     13119         1         0     13122         1         0
     13125         1         0     13128         1         0     13130         1         0
     13132         1         0     13135         1         0     13138         1         0
     13141         1         0     13144         1         0     13147         1         0
     13150         1         0     13153         1         0     13157         1         0
     13160         1         0     13163         1         0     13166         1         0
     13169         1         0     13172         1         0     13175         1         0
     13178         1         0     13181         1         0     13184         1         0
     13187         1         0     13190         1         0     13193         1         0
     13196         1         0     13200         2         0     13216         2         0
     13227         1         0     13235         1         0     13244         1         0
     13247         1         0     13250         1         0     13253         1         0
     13256         1         0     13259         1         0     13262         1         0
     13264         1         0     13266         1         0     13269         1         0
     13272         1         0     13275         1         0     13278         1         0
     13281         1         0     13284         1         0     13287         1         0
     13291         1         0     13294         1         0     13297         1         0
     13300         1         0     13303         1         0     13306         1         0
     13309         1         0     13312         1         0     13315         1         0
     13318         1         0     13321         1         0     13324         1         0
     13327         1         0     13330         1         0     13334         2         0
     13350         2         0     13361         1         0     13369         1         0
     13378         1         0     13381         1         0     13384         1         0
     13387         1         0     13390         1         0     13393         1         0
     13396         1         0     13398         1         0     13400         1         0
     13403         1         0     13406         1         0     13409         1         0
     13412         1         0     13415         1         0     13418         1         0
     13421         1         0     13425         1         0     13428         1         0
     13431         1         0     13434         1         0     13437         1         0
     13440         1         0     13443         1         0     13446         1         0
     13449         1         0     13452         1         0     13455         1         0
     13458         1         0     13461         1         0     13464         1         0

         0         0 !NUMLP NUMLPH

        48 !NCRTERM: cross-terms
         8        10        12        27        10        12        27        29
        27        29        31        34        29        31        34        36
        34        36        38        44        36        38        44        46
        44        46        48        60        46        48        60        62
        60        62        64        79        62        64        79        81
        79        81        83       101        81        83       101       103
       101       103       105       117       103       105       117       119
       117       119       121       136       119       121       136       138
       136       138       140       150       138       140       150       152
       150       152       154       164       152       154       164       166
       164       166       168       171       166       168       171       173
       171       173       175       190       173       175       190       192
       190       192       196       204       192       196       204       206
       204       206       208       214       206       208       214       216
       214       216       218       233       216       218       233       235
       233       235       237       252       235       237       252       254
       252       254       256       263       254       256       263       265
       263       265       267       287       265       267       287       289
       287       289       291       306       289       291       306       308
       306       308       310       328       308       310       328       330
       328       330       332       352       330       332       352       354
       352       354       356       374       354       356       374       376
       374       376       378       398       376       378       398       400
       398       400       402       415       400       402       415       417
       444       446       448       463       446       448       463       465
       463       465       467       470       465       467       470       472
       470       472       474       480       472       474       480       482
       480       482       484       496       482       484       496       498
       496       498       500       515       498       500       515       517
       515       517       519       537       517       519       537       539
       537       539       541       553       539       541       553       555
       553       555       557       572       555       557       572       574
       572       574       576       586       574       576       586       588
       586       588       590       600       588       590       600       602
       600       602       604       607       602       604       607       609
       607       609       611       626       609       611       626       628
       626       628       632       640       628       632       640       642
       640       642       644       650       642       644       650       652
       650       652       654       669       652       654       669       671
       669       671       673       688       671       673       688       690
       688       690       692       699       690       692       699       701
       699       701       703       723       701       703       723       725
       723       725       727       742       725       727       742       744
       742       744       746       764       744       746       764       766
       764       766       768       788       766       768       788       790
       788       790       792       810       790       792       810       812
       810       812       814       834       812       814       834       836
       834       836       838       851       836       838       851       853
