* EQUILIBRATED WATER
*  DATE:    12/ 1/25      8: 4:36      CREATED BY USER: charmm-gui
*
      7887  EXT
         1         1  TIP3      OH2           -18.4411671434      -20.0200212121       -4.3874314987  W2        1               0.0000000000
         2         1  TIP3      H1            -18.3520571434      -19.0762012121       -4.5197214987  W2        1               0.0000000000
         3         1  TIP3      H2            -19.0794071434      -20.2953812121       -5.0454914987  W2        1               0.0000000000
         4         2  TIP3      OH2           -19.5080371434      -20.7649512121       -0.9686114987  W2        2               0.0000000000
         5         2  TIP3      H1            -19.5462871434      -21.4113212121       -0.2636514987  W2        2               0.0000000000
         6         2  TIP3      H2            -19.8303871434      -21.2315112121       -1.7397414987  W2        2               0.0000000000
         7         3  TIP3      OH2           -27.1395371434      -21.1507412121        0.6243785013  W2        3               0.0000000000
         8         3  TIP3      H1            -27.0983271434      -21.7764112121        1.3476185013  W2        3               0.0000000000
         9         3  TIP3      H2            -26.4367671434      -20.5268812121        0.8064185013  W2        3               0.0000000000
        10         4  TIP3      OH2           -15.8020171434      -17.8259112121       -2.6671014987  W2        4               0.0000000000
        11         4  TIP3      H1            -16.2427471434      -18.5463112121       -2.2165414987  W2        4               0.0000000000
        12         4  TIP3      H2            -15.8150471434      -17.1051912121       -2.0373314987  W2        4               0.0000000000
        13         5  TIP3      OH2           -26.2162271434      -16.7008512121       -0.8407114987  W2        5               0.0000000000
        14         5  TIP3      H1            -26.5857071434      -17.5028012121       -1.2102814987  W2        5               0.0000000000
        15         5  TIP3      H2            -25.2751171434      -16.8693612121       -0.7943714987  W2        5               0.0000000000
        16         6  TIP3      OH2           -29.6061771434      -23.0405912121       -5.4478314987  W2        6               0.0000000000
        17         6  TIP3      H1            -30.0538371434      -22.1947212121       -5.4661814987  W2        6               0.0000000000
        18         6  TIP3      H2            -30.1670571434      -23.6201712121       -5.9633214987  W2        6               0.0000000000
        19         7  TIP3      OH2           -28.8955671434      -20.8786312121       -3.3220314987  W2        7               0.0000000000
        20         7  TIP3      H1            -28.6822171434      -21.6484712121       -2.7947314987  W2        7               0.0000000000
        21         7  TIP3      H2            -28.1578071434      -20.7889612121       -3.9252714987  W2        7               0.0000000000
        22         8  TIP3      OH2           -18.6904671434      -12.7217412121       -2.4550614987  W2        8               0.0000000000
        23         8  TIP3      H1            -18.0708271434      -13.3982712121       -2.7281414987  W2        8               0.0000000000
        24         8  TIP3      H2            -18.8987271434      -12.9396612121       -1.5465714987  W2        8               0.0000000000
        25         9  TIP3      OH2           -21.1185971434      -18.3328112121       -0.5625114987  W2        9               0.0000000000
        26         9  TIP3      H1            -20.8148071434      -19.0186712121       -1.1571014987  W2        9               0.0000000000
        27         9  TIP3      H2            -20.3971971434      -18.2139412121        0.0552885013  W2        9               0.0000000000
        28        10  TIP3      OH2           -12.4556171434      -26.7312812121        0.2981085013  W2        10              0.0000000000
        29        10  TIP3      H1            -12.4063971434      -26.1211612121        1.0340185013  W2        10              0.0000000000
        30        10  TIP3      H2            -12.0301071434      -26.2701912121       -0.4247814987  W2        10              0.0000000000
        31        11  TIP3      OH2           -17.9778971434      -23.9385712121       -0.2350314987  W2        11              0.0000000000
        32        11  TIP3      H1            -17.8353071434      -24.8848712121       -0.2148714987  W2        11              0.0000000000
        33        11  TIP3      H2            -18.0839971434      -23.7315912121       -1.1635414987  W2        11              0.0000000000
        34        12  TIP3      OH2           -24.8230671434      -25.8369312121       -2.9625514987  W2        12              0.0000000000
        35        12  TIP3      H1            -24.7799571434      -24.9770812121       -3.3809214987  W2        12              0.0000000000
        36        12  TIP3      H2            -25.2806571434      -26.3894612121       -3.5962314987  W2        12              0.0000000000
        37        13  TIP3      OH2           -17.1007971434      -25.7063712121       -4.5617214987  W2        13              0.0000000000
        38        13  TIP3      H1            -16.4543671434      -26.0350512121       -3.9369614987  W2        13              0.0000000000
        39        13  TIP3      H2            -16.5908571434      -25.1884712121       -5.1845814987  W2        13              0.0000000000
        40        14  TIP3      OH2           -28.2029171434      -23.4403512121       -2.2004114987  W2        14              0.0000000000
        41        14  TIP3      H1            -27.5492571434      -23.9901812121       -1.7684014987  W2        14              0.0000000000
        42        14  TIP3      H2            -28.1789871434      -23.7144512121       -3.1172114987  W2        14              0.0000000000
        43        15  TIP3      OH2           -23.0464671434      -21.8902212121       -2.9852614987  W2        15              0.0000000000
        44        15  TIP3      H1            -22.4303671434      -22.4166812121       -2.4758614987  W2        15              0.0000000000
        45        15  TIP3      H2            -23.6325871434      -22.5303512121       -3.3889014987  W2        15              0.0000000000
        46        16  TIP3      OH2           -12.0641571434      -25.2533612121        2.5340885013  W2        16              0.0000000000
        47        16  TIP3      H1            -12.7526971434      -24.5952912121        2.4387485013  W2        16              0.0000000000
        48        16  TIP3      H2            -12.0486971434      -25.4505712121        3.4706285013  W2        16              0.0000000000
        49        17  TIP3      OH2           -26.0128771434      -26.9190912121        1.1115285013  W2        17              0.0000000000
        50        17  TIP3      H1            -26.2317071434      -26.3890312121        0.3451285013  W2        17              0.0000000000
        51        17  TIP3      H2            -26.6807871434      -26.6925412121        1.7586685013  W2        17              0.0000000000
        52        18  TIP3      OH2           -18.6438971434      -17.4189812121       -5.3445614987  W2        18              0.0000000000
        53        18  TIP3      H1            -18.9393871434      -17.7417512121       -6.1958714987  W2        18              0.0000000000
        54        18  TIP3      H2            -18.9681171434      -16.5193112121       -5.3033014987  W2        18              0.0000000000
        55        19  TIP3      OH2           -23.4437371434      -19.2435212121        1.3988985013  W2        19              0.0000000000
        56        19  TIP3      H1            -24.1838271434      -18.6453712121        1.5024185013  W2        19              0.0000000000
        57        19  TIP3      H2            -22.7297871434      -18.6895612121        1.0832585013  W2        19              0.0000000000
        58        20  TIP3      OH2           -15.3369571434      -26.4154412121       -2.5811314987  W2        20              0.0000000000
        59        20  TIP3      H1            -15.5521571434      -27.1811012121       -2.0485314987  W2        20              0.0000000000
        60        20  TIP3      H2            -14.6812171434      -25.9429812121       -2.0682814987  W2        20              0.0000000000
        61        21  TIP3      OH2           -26.4191471434      -25.0269112121       -0.9362514987  W2        21              0.0000000000
        62        21  TIP3      H1            -25.8055171434      -24.3941512121       -0.5630114987  W2        21              0.0000000000
        63        21  TIP3      H2            -25.9070771434      -25.4994112121       -1.5925614987  W2        21              0.0000000000
        64        22  TIP3      OH2           -25.0363071434      -17.2792212121        2.1860485013  W2        22              0.0000000000
        65        22  TIP3      H1            -25.0415471434      -16.3998712121        1.8079785013  W2        22              0.0000000000
        66        22  TIP3      H2            -25.8898971434      -17.3628112121        2.6110385013  W2        22              0.0000000000
        67        23  TIP3      OH2           -28.9152171434      -17.6084312121       -7.0320214987  W2        23              0.0000000000
        68        23  TIP3      H1            -29.1871271434      -17.3793312121       -7.9207314987  W2        23              0.0000000000
        69        23  TIP3      H2            -28.8696471434      -16.7705512121       -6.5714914987  W2        23              0.0000000000
        70        24  TIP3      OH2           -15.2902471434      -15.9868412121       -0.3191714987  W2        24              0.0000000000
        71        24  TIP3      H1            -16.2318771434      -15.9284512121       -0.1574814987  W2        24              0.0000000000
        72        24  TIP3      H2            -15.0136371434      -15.0807912121       -0.4562014987  W2        24              0.0000000000
        73        25  TIP3      OH2           -14.9895471434      -27.7003112121        1.0982185013  W2        25              0.0000000000
        74        25  TIP3      H1            -15.7256271434      -27.0896012121        1.0603485013  W2        25              0.0000000000
        75        25  TIP3      H2            -14.3061471434      -27.2854112121        0.5718585013  W2        25              0.0000000000
        76        26  TIP3      OH2           -21.9864071434      -29.6135812121       -1.4359814987  W2        26              0.0000000000
        77        26  TIP3      H1            -22.1039871434      -30.5619812121       -1.4901514987  W2        26              0.0000000000
        78        26  TIP3      H2            -22.8413971434      -29.2809712121       -1.1628714987  W2        26              0.0000000000
        79        27  TIP3      OH2           -17.0381271434      -14.2054912121       -3.6940114987  W2        27              0.0000000000
        80        27  TIP3      H1            -16.6128971434      -14.9127012121       -4.1790514987  W2        27              0.0000000000
        81        27  TIP3      H2            -16.7211271434      -13.4042212121       -4.1107914987  W2        27              0.0000000000
        82        28  TIP3      OH2           -15.8784771434      -16.3046412121       -5.1853514987  W2        28              0.0000000000
        83        28  TIP3      H1            -16.1359971434      -16.9946312121       -5.7967614987  W2        28              0.0000000000
        84        28  TIP3      H2            -15.8073971434      -16.7475212121       -4.3397614987  W2        28              0.0000000000
        85        29  TIP3      OH2           -14.1924571434      -17.7379712121        3.2919985013  W2        29              0.0000000000
        86        29  TIP3      H1            -14.0528271434      -18.3297212121        2.5526985013  W2        29              0.0000000000
        87        29  TIP3      H2            -14.0251771434      -16.8653812121        2.9358785013  W2        29              0.0000000000
        88        30  TIP3      OH2           -19.7199171434      -20.7760212121       -6.9354014987  W2        30              0.0000000000
        89        30  TIP3      H1            -20.4313671434      -20.2410512121       -7.2873514987  W2        30              0.0000000000
        90        30  TIP3      H2            -19.0289571434      -20.7208112121       -7.5955114987  W2        30              0.0000000000
        91        31  TIP3      OH2           -19.6659971434      -22.3185912121       -9.8969014987  W2        31              0.0000000000
        92        31  TIP3      H1            -18.9650071434      -22.2959012121       -9.2455014987  W2        31              0.0000000000
        93        31  TIP3      H2            -19.3637071434      -22.9466212121      -10.5529714987  W2        31              0.0000000000
        94        32  TIP3      OH2           -12.3505271434      -21.3981712121        1.3580385013  W2        32              0.0000000000
        95        32  TIP3      H1            -13.0031171434      -20.7036112121        1.4471285013  W2        32              0.0000000000
        96        32  TIP3      H2            -11.8854971434      -21.1880812121        0.5481985013  W2        32              0.0000000000
        97        33  TIP3      OH2           -16.3141471434      -20.5666912121       -5.9838114987  W2        33              0.0000000000
        98        33  TIP3      H1            -17.0460471434      -20.3383212121       -5.4107514987  W2        33              0.0000000000
        99        33  TIP3      H2            -15.8669271434      -21.2804212121       -5.5290614987  W2        33              0.0000000000
       100        34  TIP3      OH2           -16.4167971434      -22.3924312121        3.0838885013  W2        34              0.0000000000
       101        34  TIP3      H1            -16.3368871434      -21.6289912121        3.6557385013  W2        34              0.0000000000
       102        34  TIP3      H2            -17.0180271434      -22.1131912121        2.3933985013  W2        34              0.0000000000
       103        35  TIP3      OH2           -24.6687771434      -19.9360712121       -4.1013114987  W2        35              0.0000000000
       104        35  TIP3      H1            -24.9992571434      -20.3067312121       -4.9196114987  W2        35              0.0000000000
       105        35  TIP3      H2            -24.0803671434      -20.6066712121       -3.7544814987  W2        35              0.0000000000
       106        36  TIP3      OH2           -23.3020271434      -16.5080112121       -1.4200914987  W2        36              0.0000000000
       107        36  TIP3      H1            -23.3968971434      -17.0867012121       -2.1766314987  W2        36              0.0000000000
       108        36  TIP3      H2            -22.5726671434      -16.8794412121       -0.9238114987  W2        36              0.0000000000
       109        37  TIP3      OH2           -24.3022271434      -21.1675112121       -0.4678114987  W2        37              0.0000000000
       110        37  TIP3      H1            -23.7369771434      -21.0460912121       -1.2306914987  W2        37              0.0000000000
       111        37  TIP3      H2            -23.9833371434      -20.5300112121        0.1710385013  W2        37              0.0000000000
       112        38  TIP3      OH2           -17.9930071434      -15.6643212121        0.2662385013  W2        38              0.0000000000
       113        38  TIP3      H1            -18.2333471434      -15.0020112121        0.9141585013  W2        38              0.0000000000
       114        38  TIP3      H2            -18.1911871434      -16.4988012121        0.6911985013  W2        38              0.0000000000
       115        39  TIP3      OH2           -23.4221571434      -16.7682412121        4.2493785013  W2        39              0.0000000000
       116        39  TIP3      H1            -23.7334071434      -15.9859212121        4.7046985013  W2        39              0.0000000000
       117        39  TIP3      H2            -24.0721371434      -16.9213312121        3.5635785013  W2        39              0.0000000000
       118        40  TIP3      OH2           -17.4431971434      -21.4044012121       -8.2986914987  W2        40              0.0000000000
       119        40  TIP3      H1            -16.8636471434      -21.2543712121       -7.5518014987  W2        40              0.0000000000
       120        40  TIP3      H2            -17.0291971434      -20.9336612121       -9.0220514987  W2        40              0.0000000000
       121        41  TIP3      OH2           -26.5021671434      -20.5701312121        3.4779485013  W2        41              0.0000000000
       122        41  TIP3      H1            -26.4318471434      -19.9194512121        4.1764485013  W2        41              0.0000000000
       123        41  TIP3      H2            -27.3929471434      -20.4673812121        3.1430385013  W2        41              0.0000000000
       124        42  TIP3      OH2           -19.7167071434      -14.6675512121       -4.8633814987  W2        42              0.0000000000
       125        42  TIP3      H1            -19.2429471434      -14.3719212121       -4.0859614987  W2        42              0.0000000000
       126        42  TIP3      H2            -20.2797771434      -13.9293912121       -5.0964214987  W2        42              0.0000000000
       127        43  TIP3      OH2           -25.1825671434      -14.6967412121        5.0127585013  W2        43              0.0000000000
       128        43  TIP3      H1            -25.1750371434      -14.8327712121        4.0653085013  W2        43              0.0000000000
       129        43  TIP3      H2            -26.0985271434      -14.8139312121        5.2647585013  W2        43              0.0000000000
       130        44  TIP3      OH2           -13.7443571434      -29.6543612121       -8.4857214987  W2        44              0.0000000000
       131        44  TIP3      H1            -14.6442871434      -29.5154612121       -8.1906614987  W2        44              0.0000000000
       132        44  TIP3      H2            -13.4925171434      -28.8229012121       -8.8875514987  W2        44              0.0000000000
       133        45  TIP3      OH2           -25.6785071434      -20.8666412121       -6.5120314987  W2        45              0.0000000000
       134        45  TIP3      H1            -25.9703771434      -20.0984712121       -7.0029014987  W2        45              0.0000000000
       135        45  TIP3      H2            -26.3529871434      -21.5260212121       -6.6748914987  W2        45              0.0000000000
       136        46  TIP3      OH2           -12.5552171434      -15.2881212121      -10.1093314987  W2        46              0.0000000000
       137        46  TIP3      H1            -12.4818671434      -14.3491012121       -9.9388014987  W2        46              0.0000000000
       138        46  TIP3      H2            -11.6497071434      -15.5932612121      -10.1656014987  W2        46              0.0000000000
       139        47  TIP3      OH2           -29.5854971434      -18.5037212121        2.3029485013  W2        47              0.0000000000
       140        47  TIP3      H1            -30.0866571434      -18.5317812121        1.4879185013  W2        47              0.0000000000
       141        47  TIP3      H2            -29.5801271434      -19.4094012121        2.6126785013  W2        47              0.0000000000
       142        48  TIP3      OH2           -29.8352271434      -15.7233412121       -0.8130314987  W2        48              0.0000000000
       143        48  TIP3      H1            -28.8891671434      -15.8676412121       -0.8320814987  W2        48              0.0000000000
       144        48  TIP3      H2            -29.9475971434      -14.9390612121       -0.2759114987  W2        48              0.0000000000
       145        49  TIP3      OH2           -11.6373771434      -15.0573712121        4.8693385013  W2        49              0.0000000000
       146        49  TIP3      H1            -11.6866971434      -16.0125612121        4.8320985013  W2        49              0.0000000000
       147        49  TIP3      H2            -12.4641471434      -14.7898412121        5.2707185013  W2        49              0.0000000000
       148        50  TIP3      OH2           -20.6589771434      -15.4834512121        3.7454785013  W2        50              0.0000000000
       149        50  TIP3      H1            -20.5715171434      -14.6569912121        4.2203885013  W2        50              0.0000000000
       150        50  TIP3      H2            -21.5224671434      -15.8130712121        3.9944085013  W2        50              0.0000000000
       151        51  TIP3      OH2           -20.2443971434      -11.7110812121       -6.4484614987  W2        51              0.0000000000
       152        51  TIP3      H1            -20.3197971434      -11.8323612121       -7.3949414987  W2        51              0.0000000000
       153        51  TIP3      H2            -20.2115271434      -10.7618112121       -6.3300014987  W2        51              0.0000000000
       154        52  TIP3      OH2           -26.5910171434      -12.9223812121       -4.6675614987  W2        52              0.0000000000
       155        52  TIP3      H1            -26.4389771434      -13.2703412121       -3.7889114987  W2        52              0.0000000000
       156        52  TIP3      H2            -27.4419771434      -13.2786512121       -4.9228414987  W2        52              0.0000000000
       157        53  TIP3      OH2           -17.1427971434      -12.5570612121       -9.4462214987  W2        53              0.0000000000
       158        53  TIP3      H1            -16.7679571434      -13.3014512121       -9.9169614987  W2        53              0.0000000000
       159        53  TIP3      H2            -17.1384271434      -12.8270012121       -8.5278914987  W2        53              0.0000000000
       160        54  TIP3      OH2           -17.4739871434      -12.6313512121       -6.6970014987  W2        54              0.0000000000
       161        54  TIP3      H1            -18.4090071434      -12.5311612121       -6.5183014987  W2        54              0.0000000000
       162        54  TIP3      H2            -17.1937971434      -13.3407512121       -6.1186814987  W2        54              0.0000000000
       163        55  TIP3      OH2           -14.4853971434      -23.5641212121        5.3495585013  W2        55              0.0000000000
       164        55  TIP3      H1            -14.8927171434      -23.0835612121        4.6288885013  W2        55              0.0000000000
       165        55  TIP3      H2            -14.4448271434      -24.4695212121        5.0416385013  W2        55              0.0000000000
       166        56  TIP3      OH2           -27.3364471434      -17.1801812121        3.3462285013  W2        56              0.0000000000
       167        56  TIP3      H1            -27.1203171434      -17.5416212121        4.2058085013  W2        56              0.0000000000
       168        56  TIP3      H2            -28.1919771434      -17.5548012121        3.1365785013  W2        56              0.0000000000
       169        57  TIP3      OH2           -24.7176471434      -28.7101312121       -0.6583514987  W2        57              0.0000000000
       170        57  TIP3      H1            -25.5792771434      -28.7973112121       -1.0660614987  W2        57              0.0000000000
       171        57  TIP3      H2            -24.7400771434      -27.8541212121       -0.2305914987  W2        57              0.0000000000
       172        58  TIP3      OH2           -20.0548671434      -28.9880912121        2.7163485013  W2        58              0.0000000000
       173        58  TIP3      H1            -19.6345571434      -29.4033812121        3.4694085013  W2        58              0.0000000000
       174        58  TIP3      H2            -20.9879071434      -29.1667612121        2.8335485013  W2        58              0.0000000000
       175        59  TIP3      OH2           -16.7283771434      -25.2325712121        3.5697985013  W2        59              0.0000000000
       176        59  TIP3      H1            -17.2424271434      -25.3583512121        4.3673985013  W2        59              0.0000000000
       177        59  TIP3      H2            -16.8839071434      -24.3202612121        3.3254185013  W2        59              0.0000000000
       178        60  TIP3      OH2           -15.9658871434      -20.3715712121      -10.6689014987  W2        60              0.0000000000
       179        60  TIP3      H1            -15.9238071434      -20.5941812121      -11.5989014987  W2        60              0.0000000000
       180        60  TIP3      H2            -15.1166771434      -19.9728612121      -10.4789114987  W2        60              0.0000000000
       181        61  TIP3      OH2           -20.3931371434      -26.4957512121       -9.9985714987  W2        61              0.0000000000
       182        61  TIP3      H1            -20.6466571434      -26.4765912121       -9.0757614987  W2        61              0.0000000000
       183        61  TIP3      H2            -20.6499271434      -27.3672112121      -10.2999514987  W2        61              0.0000000000
       184        62  TIP3      OH2           -24.6266371434      -23.7446812121        0.4366685013  W2        62              0.0000000000
       185        62  TIP3      H1            -25.2684271434      -23.7849512121        1.1456785013  W2        62              0.0000000000
       186        62  TIP3      H2            -24.5894371434      -22.8182112121        0.1989685013  W2        62              0.0000000000
       187        63  TIP3      OH2           -24.6297271434      -23.5236712121       -4.6513314987  W2        63              0.0000000000
       188        63  TIP3      H1            -25.5224371434      -23.8640612121       -4.7099514987  W2        63              0.0000000000
       189        63  TIP3      H2            -24.1790671434      -23.9005812121       -5.4070114987  W2        63              0.0000000000
       190        64  TIP3      OH2           -19.0941771434      -23.1076412121       -5.8342514987  W2        64              0.0000000000
       191        64  TIP3      H1            -19.5031471434      -22.2927812121       -6.1257714987  W2        64              0.0000000000
       192        64  TIP3      H2            -18.3735571434      -23.2476312121       -6.4485414987  W2        64              0.0000000000
       193        65  TIP3      OH2           -19.9920171434      -22.9320012121        5.6538185013  W2        65              0.0000000000
       194        65  TIP3      H1            -20.5546371434      -23.6368412121        5.9745985013  W2        65              0.0000000000
       195        65  TIP3      H2            -19.1656771434      -23.0528112121        6.1215785013  W2        65              0.0000000000
       196        66  TIP3      OH2           -18.0894071434      -23.6616012121       -3.0202814987  W2        66              0.0000000000
       197        66  TIP3      H1            -18.2849571434      -23.0559212121       -3.7352214987  W2        66              0.0000000000
       198        66  TIP3      H2            -17.9081471434      -24.4950812121       -3.4546514987  W2        66              0.0000000000
       199        67  TIP3      OH2           -26.8765871434      -23.4243312121        2.3038685013  W2        67              0.0000000000
       200        67  TIP3      H1            -26.9146471434      -23.0241712121        3.1725785013  W2        67              0.0000000000
       201        67  TIP3      H2            -27.3674771434      -24.2410912121        2.3941585013  W2        67              0.0000000000
       202        68  TIP3      OH2           -23.5108471434      -26.0501012121      -10.8975314987  W2        68              0.0000000000
       203        68  TIP3      H1            -23.9417771434      -26.4950912121      -10.1677914987  W2        68              0.0000000000
       204        68  TIP3      H2            -24.2289771434      -25.6784712121      -11.4097814987  W2        68              0.0000000000
       205        69  TIP3      OH2           -30.2685071434      -26.3081512121       -3.8456614987  W2        69              0.0000000000
       206        69  TIP3      H1            -29.6377371434      -26.3369412121       -3.1262714987  W2        69              0.0000000000
       207        69  TIP3      H2            -29.8190771434      -26.7332812121       -4.5760714987  W2        69              0.0000000000
       208        70  TIP3      OH2           -28.9942971434      -25.5619512121       -8.4216214987  W2        70              0.0000000000
       209        70  TIP3      H1            -28.5201271434      -24.9709612121       -9.0065314987  W2        70              0.0000000000
       210        70  TIP3      H2            -29.7116571434      -25.0316612121       -8.0746114987  W2        70              0.0000000000
       211        71  TIP3      OH2           -18.8254871434      -22.0234712121        1.6509585013  W2        71              0.0000000000
       212        71  TIP3      H1            -18.5020071434      -22.6545012121        1.0080085013  W2        71              0.0000000000
       213        71  TIP3      H2            -19.2655571434      -22.5582512121        2.3116985013  W2        71              0.0000000000
       214        72  TIP3      OH2           -22.0481971434      -26.0959212121       -3.5649214987  W2        72              0.0000000000
       215        72  TIP3      H1            -22.9590871434      -26.0392412121       -3.2763214987  W2        72              0.0000000000
       216        72  TIP3      H2            -21.5429071434      -26.1563712121       -2.7542014987  W2        72              0.0000000000
       217        73  TIP3      OH2           -27.2198571434      -24.4672912121       -4.7381614987  W2        73              0.0000000000
       218        73  TIP3      H1            -28.1090571434      -24.3677412121       -5.0782014987  W2        73              0.0000000000
       219        73  TIP3      H2            -26.9233671434      -25.3089912121       -5.0843714987  W2        73              0.0000000000
       220        74  TIP3      OH2           -23.5666771434      -24.4670312121       -7.0817014987  W2        74              0.0000000000
       221        74  TIP3      H1            -22.6351271434      -24.3380312121       -6.9033914987  W2        74              0.0000000000
       222        74  TIP3      H2            -23.7816471434      -23.7976012121       -7.7312314987  W2        74              0.0000000000
       223        75  TIP3      OH2           -17.6430071434      -26.8612912121       -0.3007414987  W2        75              0.0000000000
       224        75  TIP3      H1            -18.3198471434      -26.7299812121        0.3632285013  W2        75              0.0000000000
       225        75  TIP3      H2            -18.1285171434      -27.0163412121       -1.1109714987  W2        75              0.0000000000
       226        76  TIP3      OH2           -24.8926571434      -23.2728112121       -9.5150914987  W2        76              0.0000000000
       227        76  TIP3      H1            -25.4351471434      -23.6524312121      -10.2063314987  W2        76              0.0000000000
       228        76  TIP3      H2            -24.0591671434      -23.0783412121       -9.9436814987  W2        76              0.0000000000
       229        77  TIP3      OH2           -14.3554971434      -11.1897512121        5.9760185013  W2        77              0.0000000000
       230        77  TIP3      H1            -14.1556271434      -10.7655612121        5.1415485013  W2        77              0.0000000000
       231        77  TIP3      H2            -13.7001271434      -10.8459312121        6.5830585013  W2        77              0.0000000000
       232        78  TIP3      OH2           -26.7575171434      -18.7156212121        5.5840685013  W2        78              0.0000000000
       233        78  TIP3      H1            -26.0252771434      -18.4610312121        6.1455185013  W2        78              0.0000000000
       234        78  TIP3      H2            -27.5376471434      -18.5110812121        6.0996085013  W2        78              0.0000000000
       235        79  TIP3      OH2           -20.7282271434      -23.3086212121       -1.6779614987  W2        79              0.0000000000
       236        79  TIP3      H1            -20.1638871434      -23.8549612121       -2.2250014987  W2        79              0.0000000000
       237        79  TIP3      H2            -20.8758871434      -23.8304312121       -0.8892014987  W2        79              0.0000000000
       238        80  TIP3      OH2           -25.7262571434      -27.1720112121       -5.2594814987  W2        80              0.0000000000
       239        80  TIP3      H1            -26.0433071434      -28.0744812121       -5.2949414987  W2        80              0.0000000000
       240        80  TIP3      H2            -24.9448471434      -27.1702712121       -5.8123214987  W2        80              0.0000000000
       241        81  TIP3      OH2           -22.1016371434      -24.9200112121        0.7360785013  W2        81              0.0000000000
       242        81  TIP3      H1            -22.9371071434      -24.4660612121        0.8463185013  W2        81              0.0000000000
       243        81  TIP3      H2            -21.5775771434      -24.6441612121        1.4880685013  W2        81              0.0000000000
       244        82  TIP3      OH2           -21.5573771434      -18.7072412121       -7.5792814987  W2        82              0.0000000000
       245        82  TIP3      H1            -22.3022771434      -19.2147112121       -7.9014914987  W2        82              0.0000000000
       246        82  TIP3      H2            -21.6916571434      -18.6584412121       -6.6328014987  W2        82              0.0000000000
       247        83  TIP3      OH2           -14.4074871434      -19.5744212121        1.2074785013  W2        83              0.0000000000
       248        83  TIP3      H1            -13.7656071434      -19.1177912121        0.6636985013  W2        83              0.0000000000
       249        83  TIP3      H2            -15.2377971434      -19.4611812121        0.7448885013  W2        83              0.0000000000
       250        84  TIP3      OH2           -17.6596971434      -25.8932512121       -9.3800214987  W2        84              0.0000000000
       251        84  TIP3      H1            -18.5982771434      -25.7816912121       -9.5311414987  W2        84              0.0000000000
       252        84  TIP3      H2            -17.3624871434      -25.0365612121       -9.0734514987  W2        84              0.0000000000
       253        85  TIP3      OH2           -20.0381671434      -18.5229112121        3.6576285013  W2        85              0.0000000000
       254        85  TIP3      H1            -20.3835571434      -18.9046712121        4.4645885013  W2        85              0.0000000000
       255        85  TIP3      H2            -20.2381571434      -17.5895512121        3.7289185013  W2        85              0.0000000000
       256        86  TIP3      OH2           -16.9413471434      -24.0259812121       -7.7192814987  W2        86              0.0000000000
       257        86  TIP3      H1            -16.0494471434      -24.1634812121       -7.4001614987  W2        86              0.0000000000
       258        86  TIP3      H2            -16.8849871434      -23.2353712121       -8.2559314987  W2        86              0.0000000000
       259        87  TIP3      OH2           -26.4325471434      -19.4122412121       -1.8094914987  W2        87              0.0000000000
       260        87  TIP3      H1            -25.6878271434      -19.4146712121       -2.4108414987  W2        87              0.0000000000
       261        87  TIP3      H2            -26.3548871434      -20.2358612121       -1.3279814987  W2        87              0.0000000000
       262        88  TIP3      OH2           -19.4319671434      -17.2488112121       -8.5538214987  W2        88              0.0000000000
       263        88  TIP3      H1            -19.7271271434      -16.4220212121       -8.1723414987  W2        88              0.0000000000
       264        88  TIP3      H2            -20.1349671434      -17.8681212121       -8.3576814987  W2        88              0.0000000000
       265        89  TIP3      OH2           -29.4245771434      -20.9515512121        3.5053585013  W2        89              0.0000000000
       266        89  TIP3      H1            -29.2017171434      -21.3695912121        4.3371085013  W2        89              0.0000000000
       267        89  TIP3      H2            -30.0265671434      -21.5640512121        3.0826385013  W2        89              0.0000000000
       268        90  TIP3      OH2           -22.4080871434      -21.4345612121        5.7183285013  W2        90              0.0000000000
       269        90  TIP3      H1            -22.7040071434      -21.6002612121        4.8232385013  W2        90              0.0000000000
       270        90  TIP3      H2            -21.4765671434      -21.6545312121        5.7077185013  W2        90              0.0000000000
       271        91  TIP3      OH2           -17.7878071434      -16.0613612121        3.6081285013  W2        91              0.0000000000
       272        91  TIP3      H1            -18.6883771434      -15.8781012121        3.3405185013  W2        91              0.0000000000
       273        91  TIP3      H2            -17.7536971434      -15.8024312121        4.5290085013  W2        91              0.0000000000
       274        92  TIP3      OH2           -12.0564771434      -23.8165712121       -8.0246114987  W2        92              0.0000000000
       275        92  TIP3      H1            -12.6108471434      -24.2127712121       -8.6968614987  W2        92              0.0000000000
       276        92  TIP3      H2            -11.9561171434      -22.9060512121       -8.3022814987  W2        92              0.0000000000
       277        93  TIP3      OH2           -12.0932771434      -18.0164012121        4.8125385013  W2        93              0.0000000000
       278        93  TIP3      H1            -12.9444271434      -17.7780212121        4.4451785013  W2        93              0.0000000000
       279        93  TIP3      H2            -11.5029371434      -18.0330812121        4.0592485013  W2        93              0.0000000000
       280        94  TIP3      OH2           -13.7613071434      -15.0305312121       -7.5594014987  W2        94              0.0000000000
       281        94  TIP3      H1            -14.1341971434      -15.8561512121       -7.2503414987  W2        94              0.0000000000
       282        94  TIP3      H2            -13.4839571434      -15.2135912121       -8.4570614987  W2        94              0.0000000000
       283        95  TIP3      OH2           -16.6009171434      -20.2225812121       -0.5382114987  W2        95              0.0000000000
       284        95  TIP3      H1            -17.5292271434      -20.4543912121       -0.5652814987  W2        95              0.0000000000
       285        95  TIP3      H2            -16.1498071434      -20.9996012121       -0.8683314987  W2        95              0.0000000000
       286        96  TIP3      OH2           -24.0576071434      -15.8944212121       -4.4053414987  W2        96              0.0000000000
       287        96  TIP3      H1            -23.5303871434      -15.1209812121       -4.6054614987  W2        96              0.0000000000
       288        96  TIP3      H2            -24.9377571434      -15.6695012121       -4.7069414987  W2        96              0.0000000000
       289        97  TIP3      OH2           -28.3028371434      -21.0320112121       -9.8181014987  W2        97              0.0000000000
       290        97  TIP3      H1            -27.6868471434      -20.4052912121       -9.4386214987  W2        97              0.0000000000
       291        97  TIP3      H2            -29.1645771434      -20.7160312121       -9.5464514987  W2        97              0.0000000000
       292        98  TIP3      OH2           -22.6303771434      -18.2314312121       -4.8289114987  W2        98              0.0000000000
       293        98  TIP3      H1            -22.8713771434      -17.3059912121       -4.7873814987  W2        98              0.0000000000
       294        98  TIP3      H2            -23.3710171434      -18.6903012121       -4.4325214987  W2        98              0.0000000000
       295        99  TIP3      OH2           -22.1157171434      -14.0820712121        1.4861985013  W2        99              0.0000000000
       296        99  TIP3      H1            -21.7532471434      -13.2275112121        1.2526385013  W2        99              0.0000000000
       297        99  TIP3      H2            -21.5841971434      -14.3739112121        2.2268285013  W2        99              0.0000000000
       298       100  TIP3      OH2           -23.9472971434      -13.2096712121       -5.2836914987  W2        100             0.0000000000
       299       100  TIP3      H1            -24.8972471434      -13.1039312121       -5.2323614987  W2        100             0.0000000000
       300       100  TIP3      H2            -23.5954871434      -12.3889312121       -4.9389414987  W2        100             0.0000000000
       301       101  TIP3      OH2           -18.5716371434      -17.9830012121        1.1867585013  W2        101             0.0000000000
       302       101  TIP3      H1            -18.9975071434      -18.2108312121        2.0131585013  W2        101             0.0000000000
       303       101  TIP3      H2            -17.9910571434      -18.7218212121        1.0042885013  W2        101             0.0000000000
       304       102  TIP3      OH2           -16.3687471434      -17.0539512121       -9.7393414987  W2        102             0.0000000000
       305       102  TIP3      H1            -16.0154371434      -17.4339712121       -8.9349914987  W2        102             0.0000000000
       306       102  TIP3      H2            -17.3173971434      -17.1474712121       -9.6524114987  W2        102             0.0000000000
       307       103  TIP3      OH2           -15.9132171434      -13.4310512121        3.6562385013  W2        103             0.0000000000
       308       103  TIP3      H1            -16.5148971434      -13.9867612121        3.1608685013  W2        103             0.0000000000
       309       103  TIP3      H2            -15.6318471434      -12.7640712121        3.0299785013  W2        103             0.0000000000
       310       104  TIP3      OH2           -11.8653071434      -12.5747012121       -9.5383214987  W2        104             0.0000000000
       311       104  TIP3      H1            -11.1215171434      -11.9886512121       -9.6781614987  W2        104             0.0000000000
       312       104  TIP3      H2            -12.5594971434      -12.0061212121       -9.2050814987  W2        104             0.0000000000
       313       105  TIP3      OH2           -27.7906271434      -26.1982812121        3.0634985013  W2        105             0.0000000000
       314       105  TIP3      H1            -28.6833971434      -25.8597412121        2.9958985013  W2        105             0.0000000000
       315       105  TIP3      H2            -27.8893471434      -27.0536712121        3.4815785013  W2        105             0.0000000000
       316       106  TIP3      OH2           -15.5028171434      -18.3817512121       -7.5125514987  W2        106             0.0000000000
       317       106  TIP3      H1            -15.7800571434      -19.1098212121       -6.9564414987  W2        106             0.0000000000
       318       106  TIP3      H2            -14.5755171434      -18.2625512121       -7.3072914987  W2        106             0.0000000000
       319       107  TIP3      OH2           -28.1394271434      -14.3938412121        1.4984385013  W2        107             0.0000000000
       320       107  TIP3      H1            -27.9223971434      -15.3256012121        1.4674085013  W2        107             0.0000000000
       321       107  TIP3      H2            -27.8930771434      -14.1193412121        2.3817185013  W2        107             0.0000000000
       322       108  TIP3      OH2           -22.2779671434      -15.9423412121      -11.2923414987  W2        108             0.0000000000
       323       108  TIP3      H1            -22.0389871434      -16.6905312121      -11.8394514987  W2        108             0.0000000000
       324       108  TIP3      H2            -22.5468371434      -16.3301712121      -10.4595614987  W2        108             0.0000000000
       325       109  TIP3      OH2           -23.3409071434      -16.3719612121       -8.8360814987  W2        109             0.0000000000
       326       109  TIP3      H1            -23.1941071434      -16.8919812121       -8.0459914987  W2        109             0.0000000000
       327       109  TIP3      H2            -23.3437371434      -15.4652012121       -8.5294914987  W2        109             0.0000000000
       328       110  TIP3      OH2           -26.8877971434      -19.1196312121       -8.3255414987  W2        110             0.0000000000
       329       110  TIP3      H1            -27.5738671434      -18.7673812121       -7.7585714987  W2        110             0.0000000000
       330       110  TIP3      H2            -26.3650071434      -18.3566712121       -8.5721114987  W2        110             0.0000000000
       331       111  TIP3      OH2           -19.0562871434      -26.4572512121        1.9533585013  W2        111             0.0000000000
       332       111  TIP3      H1            -18.3574971434      -26.3833812121        2.6033285013  W2        111             0.0000000000
       333       111  TIP3      H2            -19.4371471434      -27.3217512121        2.1076485013  W2        111             0.0000000000
       334       112  TIP3      OH2           -18.2717971434      -26.8050812121       -6.9494114987  W2        112             0.0000000000
       335       112  TIP3      H1            -18.0519671434      -26.3335412121       -7.7528714987  W2        112             0.0000000000
       336       112  TIP3      H2            -17.7133971434      -26.4108212121       -6.2793514987  W2        112             0.0000000000
       337       113  TIP3      OH2           -20.6031871434      -14.6746012121       -8.0866614987  W2        113             0.0000000000
       338       113  TIP3      H1            -21.4195771434      -14.1776312121       -8.0342314987  W2        113             0.0000000000
       339       113  TIP3      H2            -20.0735571434      -14.1992512121       -8.7267814987  W2        113             0.0000000000
       340       114  TIP3      OH2           -21.0718071434      -25.0772012121       -6.1145714987  W2        114             0.0000000000
       341       114  TIP3      H1            -20.2595471434      -24.5728812121       -6.0684014987  W2        114             0.0000000000
       342       114  TIP3      H2            -21.3165071434      -25.2222312121       -5.2006114987  W2        114             0.0000000000
       343       115  TIP3      OH2           -20.5361671434      -24.0909312121        3.0700885013  W2        115             0.0000000000
       344       115  TIP3      H1            -20.4171371434      -23.5173912121        3.8271285013  W2        115             0.0000000000
       345       115  TIP3      H2            -19.8807071434      -24.7789912121        3.1848685013  W2        115             0.0000000000
       346       116  TIP3      OH2           -20.1881371434      -27.9959012121       -5.1764614987  W2        116             0.0000000000
       347       116  TIP3      H1            -20.5347871434      -27.3788412121       -4.5320314987  W2        116             0.0000000000
       348       116  TIP3      H2            -19.5294471434      -27.4953312121       -5.6579114987  W2        116             0.0000000000
       349       117  TIP3      OH2           -23.2648771434      -13.6308812121       -8.1049714987  W2        117             0.0000000000
       350       117  TIP3      H1            -23.1040071434      -12.8311312121       -8.6057114987  W2        117             0.0000000000
       351       117  TIP3      H2            -23.4620971434      -13.3242812121       -7.2199114987  W2        117             0.0000000000
       352       118  TIP3      OH2           -24.5304371434      -26.9329612121       -8.4892114987  W2        118             0.0000000000
       353       118  TIP3      H1            -24.6139571434      -26.0446512121       -8.1425714987  W2        118             0.0000000000
       354       118  TIP3      H2            -23.6404071434      -27.1982912121       -8.2575314987  W2        118             0.0000000000
       355       119  TIP3      OH2           -14.3315871434      -26.1839012121        3.9050585013  W2        119             0.0000000000
       356       119  TIP3      H1            -15.2480071434      -25.9217312121        3.8174285013  W2        119             0.0000000000
       357       119  TIP3      H2            -13.9960871434      -26.1870012121        3.0085885013  W2        119             0.0000000000
       358       120  TIP3      OH2           -15.7294871434      -22.4338012121       -1.9992114987  W2        120             0.0000000000
       359       120  TIP3      H1            -16.5270471434      -22.8487812121       -2.3277114987  W2        120             0.0000000000
       360       120  TIP3      H2            -15.2843771434      -23.1244312121       -1.5081614987  W2        120             0.0000000000
       361       121  TIP3      OH2           -26.2719071434      -16.5057412121       -9.4287614987  W2        121             0.0000000000
       362       121  TIP3      H1            -25.6797571434      -15.8062612121       -9.1525214987  W2        121             0.0000000000
       363       121  TIP3      H2            -25.8126071434      -16.9387912121      -10.1483014987  W2        121             0.0000000000
       364       122  TIP3      OH2           -27.9559871434      -23.8414412121      -10.3128214987  W2        122             0.0000000000
       365       122  TIP3      H1            -28.0007271434      -22.9021312121      -10.1341214987  W2        122             0.0000000000
       366       122  TIP3      H2            -28.8436671434      -24.0769512121      -10.5826114987  W2        122             0.0000000000
       367       123  TIP3      OH2           -14.6430271434      -13.1775512121       -0.3768614987  W2        123             0.0000000000
       368       123  TIP3      H1            -14.7985971434      -12.4991112121       -1.0339314987  W2        123             0.0000000000
       369       123  TIP3      H2            -13.7103871434      -13.1056212121       -0.1738014987  W2        123             0.0000000000
       370       124  TIP3      OH2           -27.1477871434      -29.0597812121       -1.6397214987  W2        124             0.0000000000
       371       124  TIP3      H1            -27.3768071434      -29.0005312121       -2.5672214987  W2        124             0.0000000000
       372       124  TIP3      H2            -27.5904471434      -29.8512312121       -1.3333114987  W2        124             0.0000000000
       373       125  TIP3      OH2           -28.2174571434      -15.1190712121       -5.4791414987  W2        125             0.0000000000
       374       125  TIP3      H1            -29.0495971434      -14.6468012121       -5.4520014987  W2        125             0.0000000000
       375       125  TIP3      H2            -27.6716271434      -14.6093112121       -6.0778314987  W2        125             0.0000000000
       376       126  TIP3      OH2           -28.9290871434      -12.5067012121        5.8506585013  W2        126             0.0000000000
       377       126  TIP3      H1            -28.3888671434      -12.7233012121        6.6105785013  W2        126             0.0000000000
       378       126  TIP3      H2            -29.4102871434      -13.3121012121        5.6609085013  W2        126             0.0000000000
       379       127  TIP3      OH2           -24.3317471434      -13.5872612121        7.4710785013  W2        127             0.0000000000
       380       127  TIP3      H1            -23.5640271434      -14.0461812121        7.8119985013  W2        127             0.0000000000
       381       127  TIP3      H2            -24.3531271434      -13.8132812121        6.5411985013  W2        127             0.0000000000
       382       128  TIP3      OH2           -20.2397871434      -14.0792012121      -11.1537414987  W2        128             0.0000000000
       383       128  TIP3      H1            -20.8836871434      -14.7103412121      -10.8323714987  W2        128             0.0000000000
       384       128  TIP3      H2            -19.4779571434      -14.6104012121      -11.3853914987  W2        128             0.0000000000
       385       129  TIP3      OH2           -17.7548771434      -15.2071512121        6.2002285013  W2        129             0.0000000000
       386       129  TIP3      H1            -18.1059271434      -16.0638512121        6.4432685013  W2        129             0.0000000000
       387       129  TIP3      H2            -17.0285571434      -15.0644812121        6.8071285013  W2        129             0.0000000000
       388       130  TIP3      OH2           -15.6354971434      -14.2622112121      -10.9199414987  W2        130             0.0000000000
       389       130  TIP3      H1            -15.3524571434      -15.0566912121      -10.4672514987  W2        130             0.0000000000
       390       130  TIP3      H2            -14.8957071434      -14.0291112121      -11.4808314987  W2        130             0.0000000000
       391       131  TIP3      OH2           -29.0221371434      -18.6962912121        6.8050885013  W2        131             0.0000000000
       392       131  TIP3      H1            -28.8780871434      -19.5982212121        6.5187585013  W2        131             0.0000000000
       393       131  TIP3      H2            -29.7943971434      -18.4100812121        6.3173185013  W2        131             0.0000000000
       394       132  TIP3      OH2           -24.6807671434      -18.3527212121      -11.0624514987  W2        132             0.0000000000
       395       132  TIP3      H1            -24.6163571434      -19.1467612121      -10.5318114987  W2        132             0.0000000000
       396       132  TIP3      H2            -24.0278471434      -18.4714412121      -11.7522514987  W2        132             0.0000000000
       397       133  TIP3      OH2           -22.3665271434      -18.7264812121        6.2377285013  W2        133             0.0000000000
       398       133  TIP3      H1            -22.6951471434      -18.4556712121        5.3804685013  W2        133             0.0000000000
       399       133  TIP3      H2            -22.2147071434      -19.6675012121        6.1502285013  W2        133             0.0000000000
       400       134  TIP3      OH2           -19.3284271434      -17.3055512121      -11.3266514987  W2        134             0.0000000000
       401       134  TIP3      H1            -19.5970171434      -17.1253412121      -10.4257614987  W2        134             0.0000000000
       402       134  TIP3      H2            -19.5348671434      -18.2309312121      -11.4580714987  W2        134             0.0000000000
       403       135  TIP3      OH2           -16.6320071434      -18.8107512121        3.6209585013  W2        135             0.0000000000
       404       135  TIP3      H1            -15.8865271434      -18.2223812121        3.5013585013  W2        135             0.0000000000
       405       135  TIP3      H2            -17.3893271434      -18.2287812121        3.6842685013  W2        135             0.0000000000
       406       136  TIP3      OH2           -28.1894871434      -21.4959612121        6.2250185013  W2        136             0.0000000000
       407       136  TIP3      H1            -27.7813671434      -22.3533012121        6.1040785013  W2        136             0.0000000000
       408       136  TIP3      H2            -28.4497271434      -21.4818312121        7.1460485013  W2        136             0.0000000000
       409       137  TIP3      OH2           -23.5313871434      -20.3801012121       -8.7566514987  W2        137             0.0000000000
       410       137  TIP3      H1            -23.9911871434      -20.8642712121       -8.0708014987  W2        137             0.0000000000
       411       137  TIP3      H2            -23.2765171434      -21.0485612121       -9.3926014987  W2        137             0.0000000000
       412       138  TIP3      OH2           -24.2424571434      -22.4873912121        3.5993085013  W2        138             0.0000000000
       413       138  TIP3      H1            -24.8608471434      -21.8127312121        3.8797785013  W2        138             0.0000000000
       414       138  TIP3      H2            -23.8983371434      -22.1660012121        2.7659285013  W2        138             0.0000000000
       415       139  TIP3      OH2           -22.4603471434      -22.1369212121      -10.4943314987  W2        139             0.0000000000
       416       139  TIP3      H1            -22.6408471434      -22.2918012121      -11.4215014987  W2        139             0.0000000000
       417       139  TIP3      H2            -21.5102971434      -22.0290512121      -10.4495414987  W2        139             0.0000000000
       418       140  TIP3      OH2           -19.2226371434      -20.0158612121        6.8767885013  W2        140             0.0000000000
       419       140  TIP3      H1            -18.2695171434      -19.9319512121        6.8493885013  W2        140             0.0000000000
       420       140  TIP3      H2            -19.3831771434      -20.7276812121        7.4962785013  W2        140             0.0000000000
       421       141  TIP3      OH2           -13.0705171434      -19.7825012121      -11.0485214987  W2        141             0.0000000000
       422       141  TIP3      H1            -13.3440371434      -20.2069512121      -11.8616914987  W2        141             0.0000000000
       423       141  TIP3      H2            -13.0311071434      -18.8510512121      -11.2654814987  W2        141             0.0000000000
       424       142  TIP3      OH2           -23.9030871434      -25.1323112121        4.6816185013  W2        142             0.0000000000
       425       142  TIP3      H1            -23.7529971434      -25.8611812121        4.0795885013  W2        142             0.0000000000
       426       142  TIP3      H2            -23.9008471434      -24.3551412121        4.1228385013  W2        142             0.0000000000
       427       143  TIP3      OH2           -23.4905171434      -26.7627312121        2.1743585013  W2        143             0.0000000000
       428       143  TIP3      H1            -22.9547671434      -26.3110612121        1.5222885013  W2        143             0.0000000000
       429       143  TIP3      H2            -24.3425571434      -26.8707512121        1.7517685013  W2        143             0.0000000000
       430       144  TIP3      OH2           -21.9086771434      -21.3231112121        2.4138785013  W2        144             0.0000000000
       431       144  TIP3      H1            -21.1581971434      -21.4793612121        1.8406585013  W2        144             0.0000000000
       432       144  TIP3      H2            -22.2478471434      -20.4714512121        2.1384285013  W2        144             0.0000000000
       433       145  TIP3      OH2           -17.4930571434      -23.5079312121        7.4424085013  W2        145             0.0000000000
       434       145  TIP3      H1            -17.3009271434      -24.4389912121        7.3308585013  W2        145             0.0000000000
       435       145  TIP3      H2            -16.6354271434      -23.0829812121        7.4319485013  W2        145             0.0000000000
       436       146  TIP3      OH2           -16.1763371434      -20.7194112121        5.5196785013  W2        146             0.0000000000
       437       146  TIP3      H1            -16.4578371434      -20.0099512121        4.9420585013  W2        146             0.0000000000
       438       146  TIP3      H2            -15.2339071434      -20.7921112121        5.3687985013  W2        146             0.0000000000
       439       147  TIP3      OH2           -25.4244571434      -23.9339612121        6.5931785013  W2        147             0.0000000000
       440       147  TIP3      H1            -26.1915571434      -24.4664812121        6.3829385013  W2        147             0.0000000000
       441       147  TIP3      H2            -24.7455571434      -24.2439212121        5.9938085013  W2        147             0.0000000000
       442       148  TIP3      OH2           -22.6849671434      -29.3061612121        2.6057185013  W2        148             0.0000000000
       443       148  TIP3      H1            -22.7830071434      -28.3598412121        2.5003385013  W2        148             0.0000000000
       444       148  TIP3      H2            -23.4273471434      -29.6787812121        2.1300685013  W2        148             0.0000000000
       445       149  TIP3      OH2           -21.4209171434      -24.9846212121        6.1695585013  W2        149             0.0000000000
       446       149  TIP3      H1            -21.6563771434      -25.2039512121        7.0710485013  W2        149             0.0000000000
       447       149  TIP3      H2            -22.2042271434      -25.1915012121        5.6598085013  W2        149             0.0000000000
       448       150  TIP3      OH2           -18.7052571434      -25.8572712121        5.2449085013  W2        150             0.0000000000
       449       150  TIP3      H1            -19.6527171434      -25.8253012121        5.3772385013  W2        150             0.0000000000
       450       150  TIP3      H2            -18.3925871434      -26.4825612121        5.8987285013  W2        150             0.0000000000
       451       151  TIP3      OH2           -17.0711071434      -27.2231612121        7.2500985013  W2        151             0.0000000000
       452       151  TIP3      H1            -17.1679271434      -28.1754312121        7.2442885013  W2        151             0.0000000000
       453       151  TIP3      H2            -17.3927971434      -26.9544812121        8.1106485013  W2        151             0.0000000000
       454       152  TIP3      OH2           -27.2441771434      -26.0135812121        6.2976485013  W2        152             0.0000000000
       455       152  TIP3      H1            -27.0324371434      -26.7199712121        5.6873985013  W2        152             0.0000000000
       456       152  TIP3      H2            -27.3554271434      -26.4509812121        7.1417685013  W2        152             0.0000000000
       457       153  TIP3      OH2           -22.4631571434      -30.0124212121        5.2769985013  W2        153             0.0000000000
       458       153  TIP3      H1            -21.7513171434      -30.6522012121        5.2629085013  W2        153             0.0000000000
       459       153  TIP3      H2            -22.5641171434      -29.7455912121        4.3633085013  W2        153             0.0000000000
       460       154  TIP3      OH2           -22.1094071434      -28.3295812121        7.3306285013  W2        154             0.0000000000
       461       154  TIP3      H1            -22.2411871434      -28.8052012121        6.5104785013  W2        154             0.0000000000
       462       154  TIP3      H2            -22.7086671434      -27.5852212121        7.2753385013  W2        154             0.0000000000
       463       155  TIP3      OH2           -22.5631771434      -11.4465512121       -9.4929714987  W2        155             0.0000000000
       464       155  TIP3      H1            -21.6301071434      -11.2886812121       -9.3491314987  W2        155             0.0000000000
       465       155  TIP3      H2            -22.8272971434      -10.7712512121      -10.1178214987  W2        155             0.0000000000
       466       156  TIP3      OH2           -28.9946871434      -16.8101712121      -10.0101614987  W2        156             0.0000000000
       467       156  TIP3      H1            -28.0807671434      -16.7312812121       -9.7367714987  W2        156             0.0000000000
       468       156  TIP3      H2            -28.9873771434      -17.4972112121      -10.6766014987  W2        156             0.0000000000
       469       157  TIP3      OH2           -30.3456271434      -11.4173212121       -4.9327714987  W2        157             0.0000000000
       470       157  TIP3      H1            -30.9929171434      -11.8791512121       -5.4656514987  W2        157             0.0000000000
       471       157  TIP3      H2            -29.9911671434      -12.0889912121       -4.3501514987  W2        157             0.0000000000
       472       158  TIP3      OH2           -29.4757071434      -13.3366212121       -3.1281514987  W2        158             0.0000000000
       473       158  TIP3      H1            -29.8100271434      -14.2168912121       -2.9561314987  W2        158             0.0000000000
       474       158  TIP3      H2            -29.2534671434      -12.9911212121       -2.2635914987  W2        158             0.0000000000
       475       159  TIP3      OH2           -11.9272271434      -12.5269812121       -0.1476714987  W2        159             0.0000000000
       476       159  TIP3      H1            -11.9485571434      -12.3421412121        0.7912685013  W2        159             0.0000000000
       477       159  TIP3      H2            -11.2366071434      -11.9585812121       -0.4885314987  W2        159             0.0000000000
       478       160  TIP3      OH2           -12.3639371434      -12.9598712121        2.7742385013  W2        160             0.0000000000
       479       160  TIP3      H1            -12.8510671434      -13.6954612121        2.4029785013  W2        160             0.0000000000
       480       160  TIP3      H2            -11.8146671434      -13.3534812121        3.4521785013  W2        160             0.0000000000
       481       161  TIP3      OH2           -13.9132071434      -17.1700612121        7.4122685013  W2        161             0.0000000000
       482       161  TIP3      H1            -14.7790971434      -17.2750912121        7.8064985013  W2        161             0.0000000000
       483       161  TIP3      H2            -13.5366171434      -16.4117312121        7.8587385013  W2        161             0.0000000000
       484       162  TIP3      OH2           -12.6122371434      -18.9136912121       -7.0734814987  W2        162             0.0000000000
       485       162  TIP3      H1            -11.7620971434      -18.4926012121       -6.9463214987  W2        162             0.0000000000
       486       162  TIP3      H2            -12.6067271434      -19.6536812121       -6.4663414987  W2        162             0.0000000000
       487       163  TIP3      OH2           -12.2176771434      -20.8599512121       -5.2499114987  W2        163             0.0000000000
       488       163  TIP3      H1            -12.9442171434      -21.3396912121       -4.8521514987  W2        163             0.0000000000
       489       163  TIP3      H2            -11.6363471434      -20.6544812121       -4.5177514987  W2        163             0.0000000000
       490       164  TIP3      OH2           -12.4585571434      -18.0752012121       -0.3021514987  W2        164             0.0000000000
       491       164  TIP3      H1            -11.6251371434      -18.4532012121       -0.5827914987  W2        164             0.0000000000
       492       164  TIP3      H2            -12.3465271434      -17.1320812121       -0.4212414987  W2        164             0.0000000000
       493       165  TIP3      OH2           -13.9723271434      -15.1974512121        2.0046885013  W2        165             0.0000000000
       494       165  TIP3      H1            -14.6197971434      -14.8723012121        2.6302085013  W2        165             0.0000000000
       495       165  TIP3      H2            -14.4899271434      -15.6376812121        1.3305185013  W2        165             0.0000000000
       496       166  TIP3      OH2           -11.9493671434      -20.9591012121       -8.8587814987  W2        166             0.0000000000
       497       166  TIP3      H1            -12.4712571434      -20.6026912121       -9.5776914987  W2        166             0.0000000000
       498       166  TIP3      H2            -11.9824471434      -20.2843212121       -8.1806914987  W2        166             0.0000000000
       499       167  TIP3      OH2           -13.6004671434      -23.7195412121      -10.3080714987  W2        167             0.0000000000
       500       167  TIP3      H1            -13.5040271434      -23.0528412121      -10.9881014987  W2        167             0.0000000000
       501       167  TIP3      H2            -13.7405071434      -24.5349112121      -10.7895214987  W2        167             0.0000000000
       502       168  TIP3      OH2           -14.4309971434      -22.3393012121       -4.6870414987  W2        168             0.0000000000
       503       168  TIP3      H1            -14.5811171434      -23.2844412121       -4.7072614987  W2        168             0.0000000000
       504       168  TIP3      H2            -14.7845471434      -22.0581612121       -3.8431314987  W2        168             0.0000000000
       505       169  TIP3      OH2           -29.3957571434      -20.2610812121       -0.6766614987  W2        169             0.0000000000
       506       169  TIP3      H1            -29.2114671434      -20.3429112121       -1.6123714987  W2        169             0.0000000000
       507       169  TIP3      H2            -28.5464671434      -20.3853812121       -0.2530214987  W2        169             0.0000000000
       508       170  TIP3      OH2           -13.5747071434      -20.3689712121        4.9517885013  W2        170             0.0000000000
       509       170  TIP3      H1            -12.9919771434      -21.1037412121        5.1435085013  W2        170             0.0000000000
       510       170  TIP3      H2            -13.0107771434      -19.5969412121        4.9983685013  W2        170             0.0000000000
       511       171  TIP3      OH2           -12.0779971434      -22.4663912121        5.6363285013  W2        171             0.0000000000
       512       171  TIP3      H1            -12.9413271434      -22.8451812121        5.4707985013  W2        171             0.0000000000
       513       171  TIP3      H2            -11.4736271434      -23.2049112121        5.5619085013  W2        171             0.0000000000
       514       172  TIP3      OH2           -14.3530871434      -26.3115612121      -11.1905214987  W2        172             0.0000000000
       515       172  TIP3      H1            -13.7425071434      -26.6828812121      -10.5537014987  W2        172             0.0000000000
       516       172  TIP3      H2            -15.1899371434      -26.7328712121      -10.9945214987  W2        172             0.0000000000
       517       173  TIP3      OH2           -14.7205171434      -24.7567212121       -6.2245314987  W2        173             0.0000000000
       518       173  TIP3      H1            -14.4408071434      -25.6636812121       -6.1003614987  W2        173             0.0000000000
       519       173  TIP3      H2            -13.9613471434      -24.3225712121       -6.6136114987  W2        173             0.0000000000
       520       174  TIP3      OH2           -14.1086871434      -24.1749812121       -0.7886414987  W2        174             0.0000000000
       521       174  TIP3      H1            -13.1758871434      -23.9629912121       -0.8230414987  W2        174             0.0000000000
       522       174  TIP3      H2            -14.3439371434      -24.0737712121        0.1336585013  W2        174             0.0000000000
       523       175  TIP3      OH2           -14.0794971434      -23.4384512121        1.9872985013  W2        175             0.0000000000
       524       175  TIP3      H1            -14.9223671434      -23.1704112121        2.3532785013  W2        175             0.0000000000
       525       175  TIP3      H2            -13.6370671434      -22.6162612121        1.7764085013  W2        175             0.0000000000
       526       176  TIP3      OH2           -29.7982771434      -24.9905812121        5.4642185013  W2        176             0.0000000000
       527       176  TIP3      H1            -28.8787871434      -25.1127512121        5.7005285013  W2        176             0.0000000000
       528       176  TIP3      H2            -30.2478271434      -25.7406112121        5.8535685013  W2        176             0.0000000000
       529       177  TIP3      OH2           -11.7963371434      -29.4584312121        7.3407985013  W2        177             0.0000000000
       530       177  TIP3      H1            -11.4466371434      -30.1120812121        6.7352685013  W2        177             0.0000000000
       531       177  TIP3      H2            -11.6493871434      -28.6210212121        6.9010585013  W2        177             0.0000000000
       532       178  TIP3      OH2           -14.1070371434      -27.4937912121       -6.1763314987  W2        178             0.0000000000
       533       178  TIP3      H1            -13.9245371434      -27.9426412121       -5.3508314987  W2        178             0.0000000000
       534       178  TIP3      H2            -14.7067471434      -28.0783512121       -6.6398714987  W2        178             0.0000000000
       535       179  TIP3      OH2           -28.5770271434      -26.6784212121       -1.6444914987  W2        179             0.0000000000
       536       179  TIP3      H1            -28.1318671434      -27.4701712121       -1.3425214987  W2        179             0.0000000000
       537       179  TIP3      H2            -28.1107271434      -25.9619012121       -1.2139314987  W2        179             0.0000000000
       538       180  TIP3      OH2           -30.2729971434      -23.6791212121       -0.5754714987  W2        180             0.0000000000
       539       180  TIP3      H1            -29.7810171434      -23.9000712121       -1.3662714987  W2        180             0.0000000000
       540       180  TIP3      H2            -29.9109071434      -22.8387812121       -0.2945214987  W2        180             0.0000000000
       541       181  TIP3      OH2           -12.2766171434      -27.3489712121        5.6899285013  W2        181             0.0000000000
       542       181  TIP3      H1            -13.1940471434      -27.0782612121        5.6542785013  W2        181             0.0000000000
       543       181  TIP3      H2            -12.1536771434      -27.8841312121        4.9058985013  W2        181             0.0000000000
       544       182  TIP3      OH2           -12.2404171434      -27.4259812121       -9.6483014987  W2        182             0.0000000000
       545       182  TIP3      H1            -11.8281571434      -28.1474112121      -10.1235014987  W2        182             0.0000000000
       546       182  TIP3      H2            -11.5587671434      -26.7565212121       -9.5898714987  W2        182             0.0000000000
       547       183  TIP3      OH2           -29.9593471434      -27.4212112121       -6.5212314987  W2        183             0.0000000000
       548       183  TIP3      H1            -30.8845071434      -27.2125512121       -6.6506814987  W2        183             0.0000000000
       549       183  TIP3      H2            -29.5053571434      -26.9371312121       -7.2110014987  W2        183             0.0000000000
       550       184  TIP3      OH2           -15.1886271434      -12.4370412121       -4.5754914987  W2        184             0.0000000000
       551       184  TIP3      H1            -14.5363371434      -12.7848312121       -5.1835814987  W2        184             0.0000000000
       552       184  TIP3      H2            -14.6782471434      -11.9487212121       -3.9295214987  W2        184             0.0000000000
       553       185  TIP3      OH2           -29.9958071434      -28.6833112121        1.8230185013  W2        185             0.0000000000
       554       185  TIP3      H1            -30.6607571434      -28.9292812121        2.4661085013  W2        185             0.0000000000
       555       185  TIP3      H2            -30.4386771434      -28.0612712121        1.2458185013  W2        185             0.0000000000
       556       186  TIP3      OH2           -27.8038771434      -15.5079012121        5.9675985013  W2        186             0.0000000000
       557       186  TIP3      H1            -28.6246271434      -15.3332512121        5.5070685013  W2        186             0.0000000000
       558       186  TIP3      H2            -28.0560971434      -15.5814312121        6.8880385013  W2        186             0.0000000000
       559       187  TIP3      OH2           -24.8495871434      -14.5337812121        2.2259985013  W2        187             0.0000000000
       560       187  TIP3      H1            -25.2744771434      -13.7239312121        1.9434585013  W2        187             0.0000000000
       561       187  TIP3      H2            -23.9453071434      -14.4483712121        1.9239785013  W2        187             0.0000000000
       562       188  TIP3      OH2           -20.5384471434      -13.1347812121        5.1853685013  W2        188             0.0000000000
       563       188  TIP3      H1            -20.3536971434      -13.4681712121        6.0633985013  W2        188             0.0000000000
       564       188  TIP3      H2            -19.6919971434      -12.8249212121        4.8632885013  W2        188             0.0000000000
       565       189  TIP3      OH2           -18.1934071434      -11.8488912121        4.4295085013  W2        189             0.0000000000
       566       189  TIP3      H1            -17.5165171434      -12.4816612121        4.1894285013  W2        189             0.0000000000
       567       189  TIP3      H2            -17.8715271434      -11.4478412121        5.2368385013  W2        189             0.0000000000
       568       190  TIP3      OH2           -13.2760271434      -29.2593412121        3.5090085013  W2        190             0.0000000000
       569       190  TIP3      H1            -14.0886771434      -28.9343112121        3.1214785013  W2        190             0.0000000000
       570       190  TIP3      H2            -13.0431771434      -30.0194912121        2.9759185013  W2        190             0.0000000000
       571       191  TIP3      OH2           -27.4479171434      -11.2773912121        2.2735285013  W2        191             0.0000000000
       572       191  TIP3      H1            -28.1682771434      -10.8372912121        1.8222985013  W2        191             0.0000000000
       573       191  TIP3      H2            -27.8135171434      -11.5279212121        3.1219285013  W2        191             0.0000000000
       574       192  TIP3      OH2           -24.9806571434      -11.6770012121        1.3032485013  W2        192             0.0000000000
       575       192  TIP3      H1            -25.8454371434      -11.6051512121        1.7072585013  W2        192             0.0000000000
       576       192  TIP3      H2            -25.0357571434      -11.1302712121        0.5194985013  W2        192             0.0000000000
       577       193  TIP3      OH2           -20.2700971434      -11.7891112121        0.4788485013  W2        193             0.0000000000
       578       193  TIP3      H1            -20.7266971434      -11.2601412121       -0.1753114987  W2        193             0.0000000000
       579       193  TIP3      H2            -20.1072971434      -11.1859712121        1.2040785013  W2        193             0.0000000000
       580       194  TIP3      OH2           -17.9424671434      -12.9111512121        1.4238785013  W2        194             0.0000000000
       581       194  TIP3      H1            -18.8470971434      -12.7461312121        1.1580885013  W2        194             0.0000000000
       582       194  TIP3      H2            -17.5136071434      -12.0579312121        1.3582185013  W2        194             0.0000000000
       583       195  TIP3      OH2           -15.3382771434      -11.3412412121        1.7186585013  W2        195             0.0000000000
       584       195  TIP3      H1            -15.5200771434      -10.4253512121        1.5081485013  W2        195             0.0000000000
       585       195  TIP3      H2            -15.1614971434      -11.7515312121        0.8721185013  W2        195             0.0000000000
       586       196  TIP3      OH2           -28.0331071434      -12.6541412121       -0.8162914987  W2        196             0.0000000000
       587       196  TIP3      H1            -28.0515071434      -13.0796312121        0.0409385013  W2        196             0.0000000000
       588       196  TIP3      H2            -27.2283171434      -12.9726412121       -1.2250714987  W2        196             0.0000000000
       589       197  TIP3      OH2           -25.8917971434      -13.9442712121       -2.1613014987  W2        197             0.0000000000
       590       197  TIP3      H1            -26.1107271434      -14.8605312121       -1.9917014987  W2        197             0.0000000000
       591       197  TIP3      H2            -25.0675771434      -13.8042312121       -1.6951614987  W2        197             0.0000000000
       592       198  TIP3      OH2           -23.3545471434      -13.4743412121       -1.3125014987  W2        198             0.0000000000
       593       198  TIP3      H1            -23.1419771434      -14.3624412121       -1.5994114987  W2        198             0.0000000000
       594       198  TIP3      H2            -23.2900371434      -13.5085712121       -0.3581014987  W2        198             0.0000000000
       595       199  TIP3      OH2           -19.8461771434      -27.8102812121       -2.1681714987  W2        199             0.0000000000
       596       199  TIP3      H1            -20.5204971434      -28.4397212121       -1.9125914987  W2        199             0.0000000000
       597       199  TIP3      H2            -19.2822571434      -28.2943912121       -2.7713814987  W2        199             0.0000000000
       598       200  TIP3      OH2           -14.7034571434      -29.7028812121       -2.0554614987  W2        200             0.0000000000
       599       200  TIP3      H1            -14.0996971434      -29.1553412121       -2.5573614987  W2        200             0.0000000000
       600       200  TIP3      H2            -15.5732571434      -29.3838412121       -2.2960514987  W2        200             0.0000000000
       601       201  TIP3      OH2           -12.9764171434      -28.5640112121       -3.7223714987  W2        201             0.0000000000
       602       201  TIP3      H1            -12.3646671434      -29.0784412121       -4.2490114987  W2        201             0.0000000000
       603       201  TIP3      H2            -12.5940771434      -27.6868012121       -3.6989314987  W2        201             0.0000000000
       604       202  TIP3      OH2           -27.5194271434      -29.1762512121       -4.3461814987  W2        202             0.0000000000
       605       202  TIP3      H1            -28.2964471434      -29.4107612121       -4.8535914987  W2        202             0.0000000000
       606       202  TIP3      H2            -26.9890671434      -29.9730412121       -4.3373814987  W2        202             0.0000000000
       607       203  TIP3      OH2           -28.6830871434      -29.3784412121       -8.5425714987  W2        203             0.0000000000
       608       203  TIP3      H1            -28.2440171434      -28.7673912121       -9.1342214987  W2        203             0.0000000000
       609       203  TIP3      H2            -29.3168471434      -28.8400312121       -8.0685714987  W2        203             0.0000000000
       610       204  TIP3      OH2           -22.9401671434      -29.2495412121       -4.5328714987  W2        204             0.0000000000
       611       204  TIP3      H1            -22.0658271434      -28.8611112121       -4.5624414987  W2        204             0.0000000000
       612       204  TIP3      H2            -23.0760871434      -29.4647612121       -3.6101514987  W2        204             0.0000000000
       613       205  TIP3      OH2           -17.3833271434      -29.2195612121       -2.8837014987  W2        205             0.0000000000
       614       205  TIP3      H1            -17.3071671434      -29.1244012121       -3.8331014987  W2        205             0.0000000000
       615       205  TIP3      H2            -17.6584071434      -30.1272712121       -2.7547914987  W2        205             0.0000000000
       616       206  TIP3      OH2           -16.0300671434      -29.1937812121       -7.1912014987  W2        206             0.0000000000
       617       206  TIP3      H1            -16.7329571434      -28.5788612121       -7.4010614987  W2        206             0.0000000000
       618       206  TIP3      H2            -16.4749271434      -30.0311112121       -7.0601114987  W2        206             0.0000000000
       619       207  TIP3      OH2           -28.7821371434      -13.4302212121       -7.6450614987  W2        207             0.0000000000
       620       207  TIP3      H1            -29.4671471434      -13.4683312121       -8.3125514987  W2        207             0.0000000000
       621       207  TIP3      H2            -28.7784171434      -12.5174612121       -7.3568514987  W2        207             0.0000000000
       622       208  TIP3      OH2           -26.8221771434      -27.4622912121      -10.1001614987  W2        208             0.0000000000
       623       208  TIP3      H1            -26.3308371434      -28.0920512121      -10.6276114987  W2        208             0.0000000000
       624       208  TIP3      H2            -26.1985471434      -27.1663512121       -9.4370414987  W2        208             0.0000000000
       625       209  TIP3      OH2           -21.7961671434      -27.1691412121       -7.6431114987  W2        209             0.0000000000
       626       209  TIP3      H1            -21.6180371434      -27.8158212121       -6.9602514987  W2        209             0.0000000000
       627       209  TIP3      H2            -21.8495471434      -26.3353712121       -7.1760014987  W2        209             0.0000000000
       628       210  TIP3      OH2           -19.9177871434      -12.2207312121       -9.2474414987  W2        210             0.0000000000
       629       210  TIP3      H1            -19.0517671434      -11.8539912121       -9.4256214987  W2        210             0.0000000000
       630       210  TIP3      H2            -20.1645071434      -12.6599312121      -10.0613614987  W2        210             0.0000000000
       631       211  TIP3      OH2           -13.2088271434      -12.6577012121       -6.5683314987  W2        211             0.0000000000
       632       211  TIP3      H1            -13.4031171434      -13.4054912121       -7.1333714987  W2        211             0.0000000000
       633       211  TIP3      H2            -13.2478171434      -11.8996912121       -7.1515414987  W2        211             0.0000000000
       634       212  TIP3      OH2           -27.5616271434      -28.6620612121        5.1714385013  W2        212             0.0000000000
       635       212  TIP3      H1            -27.9278071434      -29.4278012121        5.6139085013  W2        212             0.0000000000
       636       212  TIP3      H2            -26.6487771434      -28.6330412121        5.4579485013  W2        212             0.0000000000
       637       213  TIP3      OH2           -25.5885471434      -29.3116212121        6.7071485013  W2        213             0.0000000000
       638       213  TIP3      H1            -24.6901871434      -29.5856012121        6.5224885013  W2        213             0.0000000000
       639       213  TIP3      H2            -25.9752371434      -30.0540212121        7.1714085013  W2        213             0.0000000000
       640       214  TIP3      OH2           -26.9640171434      -12.5101412121      -10.6198514987  W2        214             0.0000000000
       641       214  TIP3      H1            -27.2315571434      -12.2238512121       -9.7465414987  W2        214             0.0000000000
       642       214  TIP3      H2            -26.1927571434      -13.0562212121      -10.4676014987  W2        214             0.0000000000
       643       215  TIP3      OH2           -17.1673171434      -29.9790912121        6.8894285013  W2        215             0.0000000000
       644       215  TIP3      H1            -17.0905971434      -30.4050212121        7.7431985013  W2        215             0.0000000000
       645       215  TIP3      H2            -16.2736571434      -29.9656212121        6.5467785013  W2        215             0.0000000000
       646       216  TIP3      OH2           -13.9912071434      -13.9064612121        5.5818485013  W2        216             0.0000000000
       647       216  TIP3      H1            -14.7730171434      -14.0926612121        5.0619085013  W2        216             0.0000000000
       648       216  TIP3      H2            -14.0632171434      -12.9770312121        5.7990985013  W2        216             0.0000000000
       649       217  TIP3      OH2             0.4148328566      -20.0200212121       -4.3874314987  W2        217             0.0000000000
       650       217  TIP3      H1              0.5039428566      -19.0762012121       -4.5197214987  W2        217             0.0000000000
       651       217  TIP3      H2             -0.2234071434      -20.2953812121       -5.0454914987  W2        217             0.0000000000
       652       218  TIP3      OH2            -0.6520371434      -20.7649512121       -0.9686114987  W2        218             0.0000000000
       653       218  TIP3      H1             -0.6902871434      -21.4113212121       -0.2636514987  W2        218             0.0000000000
       654       218  TIP3      H2             -0.9743871434      -21.2315112121       -1.7397414987  W2        218             0.0000000000
       655       219  TIP3      OH2            -8.2835371434      -21.1507412121        0.6243785013  W2        219             0.0000000000
       656       219  TIP3      H1             -8.2423271434      -21.7764112121        1.3476185013  W2        219             0.0000000000
       657       219  TIP3      H2             -7.5807671434      -20.5268812121        0.8064185013  W2        219             0.0000000000
       658       220  TIP3      OH2             3.0539828566      -17.8259112121       -2.6671014987  W2        220             0.0000000000
       659       220  TIP3      H1              2.6132528566      -18.5463112121       -2.2165414987  W2        220             0.0000000000
       660       220  TIP3      H2              3.0409528566      -17.1051912121       -2.0373314987  W2        220             0.0000000000
       661       221  TIP3      OH2            -7.3602271434      -16.7008512121       -0.8407114987  W2        221             0.0000000000
       662       221  TIP3      H1             -7.7297071434      -17.5028012121       -1.2102814987  W2        221             0.0000000000
       663       221  TIP3      H2             -6.4191171434      -16.8693612121       -0.7943714987  W2        221             0.0000000000
       664       222  TIP3      OH2           -10.7501771434      -23.0405912121       -5.4478314987  W2        222             0.0000000000
       665       222  TIP3      H1            -11.1978371434      -22.1947212121       -5.4661814987  W2        222             0.0000000000
       666       222  TIP3      H2            -11.3110571434      -23.6201712121       -5.9633214987  W2        222             0.0000000000
       667       223  TIP3      OH2           -10.0395671434      -20.8786312121       -3.3220314987  W2        223             0.0000000000
       668       223  TIP3      H1             -9.8262171434      -21.6484712121       -2.7947314987  W2        223             0.0000000000
       669       223  TIP3      H2             -9.3018071434      -20.7889612121       -3.9252714987  W2        223             0.0000000000
       670       224  TIP3      OH2             0.1655328566      -12.7217412121       -2.4550614987  W2        224             0.0000000000
       671       224  TIP3      H1              0.7851728566      -13.3982712121       -2.7281414987  W2        224             0.0000000000
       672       224  TIP3      H2             -0.0427271434      -12.9396612121       -1.5465714987  W2        224             0.0000000000
       673       225  TIP3      OH2            -2.2625971434      -18.3328112121       -0.5625114987  W2        225             0.0000000000
       674       225  TIP3      H1             -1.9588071434      -19.0186712121       -1.1571014987  W2        225             0.0000000000
       675       225  TIP3      H2             -1.5411971434      -18.2139412121        0.0552885013  W2        225             0.0000000000
       676       226  TIP3      OH2             6.4003828566      -26.7312812121        0.2981085013  W2        226             0.0000000000
       677       226  TIP3      H1              6.4496028566      -26.1211612121        1.0340185013  W2        226             0.0000000000
       678       226  TIP3      H2              6.8258928566      -26.2701912121       -0.4247814987  W2        226             0.0000000000
       679       227  TIP3      OH2             0.8781028566      -23.9385712121       -0.2350314987  W2        227             0.0000000000
       680       227  TIP3      H1              1.0206928566      -24.8848712121       -0.2148714987  W2        227             0.0000000000
       681       227  TIP3      H2              0.7720028566      -23.7315912121       -1.1635414987  W2        227             0.0000000000
       682       228  TIP3      OH2            -5.9670671434      -25.8369312121       -2.9625514987  W2        228             0.0000000000
       683       228  TIP3      H1             -5.9239571434      -24.9770812121       -3.3809214987  W2        228             0.0000000000
       684       228  TIP3      H2             -6.4246571434      -26.3894612121       -3.5962314987  W2        228             0.0000000000
       685       229  TIP3      OH2             1.7552028566      -25.7063712121       -4.5617214987  W2        229             0.0000000000
       686       229  TIP3      H1              2.4016328566      -26.0350512121       -3.9369614987  W2        229             0.0000000000
       687       229  TIP3      H2              2.2651428566      -25.1884712121       -5.1845814987  W2        229             0.0000000000
       688       230  TIP3      OH2            -9.3469171434      -23.4403512121       -2.2004114987  W2        230             0.0000000000
       689       230  TIP3      H1             -8.6932571434      -23.9901812121       -1.7684014987  W2        230             0.0000000000
       690       230  TIP3      H2             -9.3229871434      -23.7144512121       -3.1172114987  W2        230             0.0000000000
       691       231  TIP3      OH2            -4.1904671434      -21.8902212121       -2.9852614987  W2        231             0.0000000000
       692       231  TIP3      H1             -3.5743671434      -22.4166812121       -2.4758614987  W2        231             0.0000000000
       693       231  TIP3      H2             -4.7765871434      -22.5303512121       -3.3889014987  W2        231             0.0000000000
       694       232  TIP3      OH2             6.7918428566      -25.2533612121        2.5340885013  W2        232             0.0000000000
       695       232  TIP3      H1              6.1033028566      -24.5952912121        2.4387485013  W2        232             0.0000000000
       696       232  TIP3      H2              6.8073028566      -25.4505712121        3.4706285013  W2        232             0.0000000000
       697       233  TIP3      OH2            -7.1568771434      -26.9190912121        1.1115285013  W2        233             0.0000000000
       698       233  TIP3      H1             -7.3757071434      -26.3890312121        0.3451285013  W2        233             0.0000000000
       699       233  TIP3      H2             -7.8247871434      -26.6925412121        1.7586685013  W2        233             0.0000000000
       700       234  TIP3      OH2             0.2121028566      -17.4189812121       -5.3445614987  W2        234             0.0000000000
       701       234  TIP3      H1             -0.0833871434      -17.7417512121       -6.1958714987  W2        234             0.0000000000
       702       234  TIP3      H2             -0.1121171434      -16.5193112121       -5.3033014987  W2        234             0.0000000000
       703       235  TIP3      OH2            -4.5877371434      -19.2435212121        1.3988985013  W2        235             0.0000000000
       704       235  TIP3      H1             -5.3278271434      -18.6453712121        1.5024185013  W2        235             0.0000000000
       705       235  TIP3      H2             -3.8737871434      -18.6895612121        1.0832585013  W2        235             0.0000000000
       706       236  TIP3      OH2             3.5190428566      -26.4154412121       -2.5811314987  W2        236             0.0000000000
       707       236  TIP3      H1              3.3038428566      -27.1811012121       -2.0485314987  W2        236             0.0000000000
       708       236  TIP3      H2              4.1747828566      -25.9429812121       -2.0682814987  W2        236             0.0000000000
       709       237  TIP3      OH2            -7.5631471434      -25.0269112121       -0.9362514987  W2        237             0.0000000000
       710       237  TIP3      H1             -6.9495171434      -24.3941512121       -0.5630114987  W2        237             0.0000000000
       711       237  TIP3      H2             -7.0510771434      -25.4994112121       -1.5925614987  W2        237             0.0000000000
       712       238  TIP3      OH2            -6.1803071434      -17.2792212121        2.1860485013  W2        238             0.0000000000
       713       238  TIP3      H1             -6.1855471434      -16.3998712121        1.8079785013  W2        238             0.0000000000
       714       238  TIP3      H2             -7.0338971434      -17.3628112121        2.6110385013  W2        238             0.0000000000
       715       239  TIP3      OH2           -10.0592171434      -17.6084312121       -7.0320214987  W2        239             0.0000000000
       716       239  TIP3      H1            -10.3311271434      -17.3793312121       -7.9207314987  W2        239             0.0000000000
       717       239  TIP3      H2            -10.0136471434      -16.7705512121       -6.5714914987  W2        239             0.0000000000
       718       240  TIP3      OH2             3.5657528566      -15.9868412121       -0.3191714987  W2        240             0.0000000000
       719       240  TIP3      H1              2.6241228566      -15.9284512121       -0.1574814987  W2        240             0.0000000000
       720       240  TIP3      H2              3.8423628566      -15.0807912121       -0.4562014987  W2        240             0.0000000000
       721       241  TIP3      OH2             3.8664528566      -27.7003112121        1.0982185013  W2        241             0.0000000000
       722       241  TIP3      H1              3.1303728566      -27.0896012121        1.0603485013  W2        241             0.0000000000
       723       241  TIP3      H2              4.5498528566      -27.2854112121        0.5718585013  W2        241             0.0000000000
       724       242  TIP3      OH2            -3.1304071434      -29.6135812121       -1.4359814987  W2        242             0.0000000000
       725       242  TIP3      H1             -3.2479871434      -30.5619812121       -1.4901514987  W2        242             0.0000000000
       726       242  TIP3      H2             -3.9853971434      -29.2809712121       -1.1628714987  W2        242             0.0000000000
       727       243  TIP3      OH2             1.8178728566      -14.2054912121       -3.6940114987  W2        243             0.0000000000
       728       243  TIP3      H1              2.2431028566      -14.9127012121       -4.1790514987  W2        243             0.0000000000
       729       243  TIP3      H2              2.1348728566      -13.4042212121       -4.1107914987  W2        243             0.0000000000
       730       244  TIP3      OH2             2.9775228566      -16.3046412121       -5.1853514987  W2        244             0.0000000000
       731       244  TIP3      H1              2.7200028566      -16.9946312121       -5.7967614987  W2        244             0.0000000000
       732       244  TIP3      H2              3.0486028566      -16.7475212121       -4.3397614987  W2        244             0.0000000000
       733       245  TIP3      OH2             4.6635428566      -17.7379712121        3.2919985013  W2        245             0.0000000000
       734       245  TIP3      H1              4.8031728566      -18.3297212121        2.5526985013  W2        245             0.0000000000
       735       245  TIP3      H2              4.8308228566      -16.8653812121        2.9358785013  W2        245             0.0000000000
       736       246  TIP3      OH2            -0.8639171434      -20.7760212121       -6.9354014987  W2        246             0.0000000000
       737       246  TIP3      H1             -1.5753671434      -20.2410512121       -7.2873514987  W2        246             0.0000000000
       738       246  TIP3      H2             -0.1729571434      -20.7208112121       -7.5955114987  W2        246             0.0000000000
       739       247  TIP3      OH2            -0.8099971434      -22.3185912121       -9.8969014987  W2        247             0.0000000000
       740       247  TIP3      H1             -0.1090071434      -22.2959012121       -9.2455014987  W2        247             0.0000000000
       741       247  TIP3      H2             -0.5077071434      -22.9466212121      -10.5529714987  W2        247             0.0000000000
       742       248  TIP3      OH2             6.5054728566      -21.3981712121        1.3580385013  W2        248             0.0000000000
       743       248  TIP3      H1              5.8528828566      -20.7036112121        1.4471285013  W2        248             0.0000000000
       744       248  TIP3      H2              6.9705028566      -21.1880812121        0.5481985013  W2        248             0.0000000000
       745       249  TIP3      OH2             2.5418528566      -20.5666912121       -5.9838114987  W2        249             0.0000000000
       746       249  TIP3      H1              1.8099528566      -20.3383212121       -5.4107514987  W2        249             0.0000000000
       747       249  TIP3      H2              2.9890728566      -21.2804212121       -5.5290614987  W2        249             0.0000000000
       748       250  TIP3      OH2             2.4392028566      -22.3924312121        3.0838885013  W2        250             0.0000000000
       749       250  TIP3      H1              2.5191128566      -21.6289912121        3.6557385013  W2        250             0.0000000000
       750       250  TIP3      H2              1.8379728566      -22.1131912121        2.3933985013  W2        250             0.0000000000
       751       251  TIP3      OH2            -5.8127771434      -19.9360712121       -4.1013114987  W2        251             0.0000000000
       752       251  TIP3      H1             -6.1432571434      -20.3067312121       -4.9196114987  W2        251             0.0000000000
       753       251  TIP3      H2             -5.2243671434      -20.6066712121       -3.7544814987  W2        251             0.0000000000
       754       252  TIP3      OH2            -4.4460271434      -16.5080112121       -1.4200914987  W2        252             0.0000000000
       755       252  TIP3      H1             -4.5408971434      -17.0867012121       -2.1766314987  W2        252             0.0000000000
       756       252  TIP3      H2             -3.7166671434      -16.8794412121       -0.9238114987  W2        252             0.0000000000
       757       253  TIP3      OH2            -5.4462271434      -21.1675112121       -0.4678114987  W2        253             0.0000000000
       758       253  TIP3      H1             -4.8809771434      -21.0460912121       -1.2306914987  W2        253             0.0000000000
       759       253  TIP3      H2             -5.1273371434      -20.5300112121        0.1710385013  W2        253             0.0000000000
       760       254  TIP3      OH2             0.8629928566      -15.6643212121        0.2662385013  W2        254             0.0000000000
       761       254  TIP3      H1              0.6226528566      -15.0020112121        0.9141585013  W2        254             0.0000000000
       762       254  TIP3      H2              0.6648128566      -16.4988012121        0.6911985013  W2        254             0.0000000000
       763       255  TIP3      OH2            -4.5661571434      -16.7682412121        4.2493785013  W2        255             0.0000000000
       764       255  TIP3      H1             -4.8774071434      -15.9859212121        4.7046985013  W2        255             0.0000000000
       765       255  TIP3      H2             -5.2161371434      -16.9213312121        3.5635785013  W2        255             0.0000000000
       766       256  TIP3      OH2             1.4128028566      -21.4044012121       -8.2986914987  W2        256             0.0000000000
       767       256  TIP3      H1              1.9923528566      -21.2543712121       -7.5518014987  W2        256             0.0000000000
       768       256  TIP3      H2              1.8268028566      -20.9336612121       -9.0220514987  W2        256             0.0000000000
       769       257  TIP3      OH2            -7.6461671434      -20.5701312121        3.4779485013  W2        257             0.0000000000
       770       257  TIP3      H1             -7.5758471434      -19.9194512121        4.1764485013  W2        257             0.0000000000
       771       257  TIP3      H2             -8.5369471434      -20.4673812121        3.1430385013  W2        257             0.0000000000
       772       258  TIP3      OH2            -0.8607071434      -14.6675512121       -4.8633814987  W2        258             0.0000000000
       773       258  TIP3      H1             -0.3869471434      -14.3719212121       -4.0859614987  W2        258             0.0000000000
       774       258  TIP3      H2             -1.4237771434      -13.9293912121       -5.0964214987  W2        258             0.0000000000
       775       259  TIP3      OH2            -6.3265671434      -14.6967412121        5.0127585013  W2        259             0.0000000000
       776       259  TIP3      H1             -6.3190371434      -14.8327712121        4.0653085013  W2        259             0.0000000000
       777       259  TIP3      H2             -7.2425271434      -14.8139312121        5.2647585013  W2        259             0.0000000000
       778       260  TIP3      OH2             5.1116428566      -29.6543612121       -8.4857214987  W2        260             0.0000000000
       779       260  TIP3      H1              4.2117128566      -29.5154612121       -8.1906614987  W2        260             0.0000000000
       780       260  TIP3      H2              5.3634828566      -28.8229012121       -8.8875514987  W2        260             0.0000000000
       781       261  TIP3      OH2            -6.8225071434      -20.8666412121       -6.5120314987  W2        261             0.0000000000
       782       261  TIP3      H1             -7.1143771434      -20.0984712121       -7.0029014987  W2        261             0.0000000000
       783       261  TIP3      H2             -7.4969871434      -21.5260212121       -6.6748914987  W2        261             0.0000000000
       784       262  TIP3      OH2             6.3007828566      -15.2881212121      -10.1093314987  W2        262             0.0000000000
       785       262  TIP3      H1              6.3741328566      -14.3491012121       -9.9388014987  W2        262             0.0000000000
       786       262  TIP3      H2              7.2062928566      -15.5932612121      -10.1656014987  W2        262             0.0000000000
       787       263  TIP3      OH2           -10.7294971434      -18.5037212121        2.3029485013  W2        263             0.0000000000
       788       263  TIP3      H1            -11.2306571434      -18.5317812121        1.4879185013  W2        263             0.0000000000
       789       263  TIP3      H2            -10.7241271434      -19.4094012121        2.6126785013  W2        263             0.0000000000
       790       264  TIP3      OH2           -10.9792271434      -15.7233412121       -0.8130314987  W2        264             0.0000000000
       791       264  TIP3      H1            -10.0331671434      -15.8676412121       -0.8320814987  W2        264             0.0000000000
       792       264  TIP3      H2            -11.0915971434      -14.9390612121       -0.2759114987  W2        264             0.0000000000
       793       265  TIP3      OH2             7.2186228566      -15.0573712121        4.8693385013  W2        265             0.0000000000
       794       265  TIP3      H1              7.1693028566      -16.0125612121        4.8320985013  W2        265             0.0000000000
       795       265  TIP3      H2              6.3918528566      -14.7898412121        5.2707185013  W2        265             0.0000000000
       796       266  TIP3      OH2            -1.8029771434      -15.4834512121        3.7454785013  W2        266             0.0000000000
       797       266  TIP3      H1             -1.7155171434      -14.6569912121        4.2203885013  W2        266             0.0000000000
       798       266  TIP3      H2             -2.6664671434      -15.8130712121        3.9944085013  W2        266             0.0000000000
       799       267  TIP3      OH2            -1.3883971434      -11.7110812121       -6.4484614987  W2        267             0.0000000000
       800       267  TIP3      H1             -1.4637971434      -11.8323612121       -7.3949414987  W2        267             0.0000000000
       801       267  TIP3      H2             -1.3555271434      -10.7618112121       -6.3300014987  W2        267             0.0000000000
       802       268  TIP3      OH2            -7.7350171434      -12.9223812121       -4.6675614987  W2        268             0.0000000000
       803       268  TIP3      H1             -7.5829771434      -13.2703412121       -3.7889114987  W2        268             0.0000000000
       804       268  TIP3      H2             -8.5859771434      -13.2786512121       -4.9228414987  W2        268             0.0000000000
       805       269  TIP3      OH2             1.7132028566      -12.5570612121       -9.4462214987  W2        269             0.0000000000
       806       269  TIP3      H1              2.0880428566      -13.3014512121       -9.9169614987  W2        269             0.0000000000
       807       269  TIP3      H2              1.7175728566      -12.8270012121       -8.5278914987  W2        269             0.0000000000
       808       270  TIP3      OH2             1.3820128566      -12.6313512121       -6.6970014987  W2        270             0.0000000000
       809       270  TIP3      H1              0.4469928566      -12.5311612121       -6.5183014987  W2        270             0.0000000000
       810       270  TIP3      H2              1.6622028566      -13.3407512121       -6.1186814987  W2        270             0.0000000000
       811       271  TIP3      OH2             4.3706028566      -23.5641212121        5.3495585013  W2        271             0.0000000000
       812       271  TIP3      H1              3.9632828566      -23.0835612121        4.6288885013  W2        271             0.0000000000
       813       271  TIP3      H2              4.4111728566      -24.4695212121        5.0416385013  W2        271             0.0000000000
       814       272  TIP3      OH2            -8.4804471434      -17.1801812121        3.3462285013  W2        272             0.0000000000
       815       272  TIP3      H1             -8.2643171434      -17.5416212121        4.2058085013  W2        272             0.0000000000
       816       272  TIP3      H2             -9.3359771434      -17.5548012121        3.1365785013  W2        272             0.0000000000
       817       273  TIP3      OH2            -5.8616471434      -28.7101312121       -0.6583514987  W2        273             0.0000000000
       818       273  TIP3      H1             -6.7232771434      -28.7973112121       -1.0660614987  W2        273             0.0000000000
       819       273  TIP3      H2             -5.8840771434      -27.8541212121       -0.2305914987  W2        273             0.0000000000
       820       274  TIP3      OH2            -1.1988671434      -28.9880912121        2.7163485013  W2        274             0.0000000000
       821       274  TIP3      H1             -0.7785571434      -29.4033812121        3.4694085013  W2        274             0.0000000000
       822       274  TIP3      H2             -2.1319071434      -29.1667612121        2.8335485013  W2        274             0.0000000000
       823       275  TIP3      OH2             2.1276228566      -25.2325712121        3.5697985013  W2        275             0.0000000000
       824       275  TIP3      H1              1.6135728566      -25.3583512121        4.3673985013  W2        275             0.0000000000
       825       275  TIP3      H2              1.9720928566      -24.3202612121        3.3254185013  W2        275             0.0000000000
       826       276  TIP3      OH2             2.8901128566      -20.3715712121      -10.6689014987  W2        276             0.0000000000
       827       276  TIP3      H1              2.9321928566      -20.5941812121      -11.5989014987  W2        276             0.0000000000
       828       276  TIP3      H2              3.7393228566      -19.9728612121      -10.4789114987  W2        276             0.0000000000
       829       277  TIP3      OH2            -1.5371371434      -26.4957512121       -9.9985714987  W2        277             0.0000000000
       830       277  TIP3      H1             -1.7906571434      -26.4765912121       -9.0757614987  W2        277             0.0000000000
       831       277  TIP3      H2             -1.7939271434      -27.3672112121      -10.2999514987  W2        277             0.0000000000
       832       278  TIP3      OH2            -5.7706371434      -23.7446812121        0.4366685013  W2        278             0.0000000000
       833       278  TIP3      H1             -6.4124271434      -23.7849512121        1.1456785013  W2        278             0.0000000000
       834       278  TIP3      H2             -5.7334371434      -22.8182112121        0.1989685013  W2        278             0.0000000000
       835       279  TIP3      OH2            -5.7737271434      -23.5236712121       -4.6513314987  W2        279             0.0000000000
       836       279  TIP3      H1             -6.6664371434      -23.8640612121       -4.7099514987  W2        279             0.0000000000
       837       279  TIP3      H2             -5.3230671434      -23.9005812121       -5.4070114987  W2        279             0.0000000000
       838       280  TIP3      OH2            -0.2381771434      -23.1076412121       -5.8342514987  W2        280             0.0000000000
       839       280  TIP3      H1             -0.6471471434      -22.2927812121       -6.1257714987  W2        280             0.0000000000
       840       280  TIP3      H2              0.4824428566      -23.2476312121       -6.4485414987  W2        280             0.0000000000
       841       281  TIP3      OH2            -1.1360171434      -22.9320012121        5.6538185013  W2        281             0.0000000000
       842       281  TIP3      H1             -1.6986371434      -23.6368412121        5.9745985013  W2        281             0.0000000000
       843       281  TIP3      H2             -0.3096771434      -23.0528112121        6.1215785013  W2        281             0.0000000000
       844       282  TIP3      OH2             0.7665928566      -23.6616012121       -3.0202814987  W2        282             0.0000000000
       845       282  TIP3      H1              0.5710428566      -23.0559212121       -3.7352214987  W2        282             0.0000000000
       846       282  TIP3      H2              0.9478528566      -24.4950812121       -3.4546514987  W2        282             0.0000000000
       847       283  TIP3      OH2            -8.0205871434      -23.4243312121        2.3038685013  W2        283             0.0000000000
       848       283  TIP3      H1             -8.0586471434      -23.0241712121        3.1725785013  W2        283             0.0000000000
       849       283  TIP3      H2             -8.5114771434      -24.2410912121        2.3941585013  W2        283             0.0000000000
       850       284  TIP3      OH2            -4.6548471434      -26.0501012121      -10.8975314987  W2        284             0.0000000000
       851       284  TIP3      H1             -5.0857771434      -26.4950912121      -10.1677914987  W2        284             0.0000000000
       852       284  TIP3      H2             -5.3729771434      -25.6784712121      -11.4097814987  W2        284             0.0000000000
       853       285  TIP3      OH2           -11.4125071434      -26.3081512121       -3.8456614987  W2        285             0.0000000000
       854       285  TIP3      H1            -10.7817371434      -26.3369412121       -3.1262714987  W2        285             0.0000000000
       855       285  TIP3      H2            -10.9630771434      -26.7332812121       -4.5760714987  W2        285             0.0000000000
       856       286  TIP3      OH2           -10.1382971434      -25.5619512121       -8.4216214987  W2        286             0.0000000000
       857       286  TIP3      H1             -9.6641271434      -24.9709612121       -9.0065314987  W2        286             0.0000000000
       858       286  TIP3      H2            -10.8556571434      -25.0316612121       -8.0746114987  W2        286             0.0000000000
       859       287  TIP3      OH2             0.0305128566      -22.0234712121        1.6509585013  W2        287             0.0000000000
       860       287  TIP3      H1              0.3539928566      -22.6545012121        1.0080085013  W2        287             0.0000000000
       861       287  TIP3      H2             -0.4095571434      -22.5582512121        2.3116985013  W2        287             0.0000000000
       862       288  TIP3      OH2            -3.1921971434      -26.0959212121       -3.5649214987  W2        288             0.0000000000
       863       288  TIP3      H1             -4.1030871434      -26.0392412121       -3.2763214987  W2        288             0.0000000000
       864       288  TIP3      H2             -2.6869071434      -26.1563712121       -2.7542014987  W2        288             0.0000000000
       865       289  TIP3      OH2            -8.3638571434      -24.4672912121       -4.7381614987  W2        289             0.0000000000
       866       289  TIP3      H1             -9.2530571434      -24.3677412121       -5.0782014987  W2        289             0.0000000000
       867       289  TIP3      H2             -8.0673671434      -25.3089912121       -5.0843714987  W2        289             0.0000000000
       868       290  TIP3      OH2            -4.7106771434      -24.4670312121       -7.0817014987  W2        290             0.0000000000
       869       290  TIP3      H1             -3.7791271434      -24.3380312121       -6.9033914987  W2        290             0.0000000000
       870       290  TIP3      H2             -4.9256471434      -23.7976012121       -7.7312314987  W2        290             0.0000000000
       871       291  TIP3      OH2             1.2129928566      -26.8612912121       -0.3007414987  W2        291             0.0000000000
       872       291  TIP3      H1              0.5361528566      -26.7299812121        0.3632285013  W2        291             0.0000000000
       873       291  TIP3      H2              0.7274828566      -27.0163412121       -1.1109714987  W2        291             0.0000000000
       874       292  TIP3      OH2            -6.0366571434      -23.2728112121       -9.5150914987  W2        292             0.0000000000
       875       292  TIP3      H1             -6.5791471434      -23.6524312121      -10.2063314987  W2        292             0.0000000000
       876       292  TIP3      H2             -5.2031671434      -23.0783412121       -9.9436814987  W2        292             0.0000000000
       877       293  TIP3      OH2             4.5005028566      -11.1897512121        5.9760185013  W2        293             0.0000000000
       878       293  TIP3      H1              4.7003728566      -10.7655612121        5.1415485013  W2        293             0.0000000000
       879       293  TIP3      H2              5.1558728566      -10.8459312121        6.5830585013  W2        293             0.0000000000
       880       294  TIP3      OH2            -7.9015171434      -18.7156212121        5.5840685013  W2        294             0.0000000000
       881       294  TIP3      H1             -7.1692771434      -18.4610312121        6.1455185013  W2        294             0.0000000000
       882       294  TIP3      H2             -8.6816471434      -18.5110812121        6.0996085013  W2        294             0.0000000000
       883       295  TIP3      OH2            -1.8722271434      -23.3086212121       -1.6779614987  W2        295             0.0000000000
       884       295  TIP3      H1             -1.3078871434      -23.8549612121       -2.2250014987  W2        295             0.0000000000
       885       295  TIP3      H2             -2.0198871434      -23.8304312121       -0.8892014987  W2        295             0.0000000000
       886       296  TIP3      OH2            -6.8702571434      -27.1720112121       -5.2594814987  W2        296             0.0000000000
       887       296  TIP3      H1             -7.1873071434      -28.0744812121       -5.2949414987  W2        296             0.0000000000
       888       296  TIP3      H2             -6.0888471434      -27.1702712121       -5.8123214987  W2        296             0.0000000000
       889       297  TIP3      OH2            -3.2456371434      -24.9200112121        0.7360785013  W2        297             0.0000000000
       890       297  TIP3      H1             -4.0811071434      -24.4660612121        0.8463185013  W2        297             0.0000000000
       891       297  TIP3      H2             -2.7215771434      -24.6441612121        1.4880685013  W2        297             0.0000000000
       892       298  TIP3      OH2            -2.7013771434      -18.7072412121       -7.5792814987  W2        298             0.0000000000
       893       298  TIP3      H1             -3.4462771434      -19.2147112121       -7.9014914987  W2        298             0.0000000000
       894       298  TIP3      H2             -2.8356571434      -18.6584412121       -6.6328014987  W2        298             0.0000000000
       895       299  TIP3      OH2             4.4485128566      -19.5744212121        1.2074785013  W2        299             0.0000000000
       896       299  TIP3      H1              5.0903928566      -19.1177912121        0.6636985013  W2        299             0.0000000000
       897       299  TIP3      H2              3.6182028566      -19.4611812121        0.7448885013  W2        299             0.0000000000
       898       300  TIP3      OH2             1.1963028566      -25.8932512121       -9.3800214987  W2        300             0.0000000000
       899       300  TIP3      H1              0.2577228566      -25.7816912121       -9.5311414987  W2        300             0.0000000000
       900       300  TIP3      H2              1.4935128566      -25.0365612121       -9.0734514987  W2        300             0.0000000000
       901       301  TIP3      OH2            -1.1821671434      -18.5229112121        3.6576285013  W2        301             0.0000000000
       902       301  TIP3      H1             -1.5275571434      -18.9046712121        4.4645885013  W2        301             0.0000000000
       903       301  TIP3      H2             -1.3821571434      -17.5895512121        3.7289185013  W2        301             0.0000000000
       904       302  TIP3      OH2             1.9146528566      -24.0259812121       -7.7192814987  W2        302             0.0000000000
       905       302  TIP3      H1              2.8065528566      -24.1634812121       -7.4001614987  W2        302             0.0000000000
       906       302  TIP3      H2              1.9710128566      -23.2353712121       -8.2559314987  W2        302             0.0000000000
       907       303  TIP3      OH2            -7.5765471434      -19.4122412121       -1.8094914987  W2        303             0.0000000000
       908       303  TIP3      H1             -6.8318271434      -19.4146712121       -2.4108414987  W2        303             0.0000000000
       909       303  TIP3      H2             -7.4988871434      -20.2358612121       -1.3279814987  W2        303             0.0000000000
       910       304  TIP3      OH2            -0.5759671434      -17.2488112121       -8.5538214987  W2        304             0.0000000000
       911       304  TIP3      H1             -0.8711271434      -16.4220212121       -8.1723414987  W2        304             0.0000000000
       912       304  TIP3      H2             -1.2789671434      -17.8681212121       -8.3576814987  W2        304             0.0000000000
       913       305  TIP3      OH2           -10.5685771434      -20.9515512121        3.5053585013  W2        305             0.0000000000
       914       305  TIP3      H1            -10.3457171434      -21.3695912121        4.3371085013  W2        305             0.0000000000
       915       305  TIP3      H2            -11.1705671434      -21.5640512121        3.0826385013  W2        305             0.0000000000
       916       306  TIP3      OH2            -3.5520871434      -21.4345612121        5.7183285013  W2        306             0.0000000000
       917       306  TIP3      H1             -3.8480071434      -21.6002612121        4.8232385013  W2        306             0.0000000000
       918       306  TIP3      H2             -2.6205671434      -21.6545312121        5.7077185013  W2        306             0.0000000000
       919       307  TIP3      OH2             1.0681928566      -16.0613612121        3.6081285013  W2        307             0.0000000000
       920       307  TIP3      H1              0.1676228566      -15.8781012121        3.3405185013  W2        307             0.0000000000
       921       307  TIP3      H2              1.1023028566      -15.8024312121        4.5290085013  W2        307             0.0000000000
       922       308  TIP3      OH2             6.7995228566      -23.8165712121       -8.0246114987  W2        308             0.0000000000
       923       308  TIP3      H1              6.2451528566      -24.2127712121       -8.6968614987  W2        308             0.0000000000
       924       308  TIP3      H2              6.8998828566      -22.9060512121       -8.3022814987  W2        308             0.0000000000
       925       309  TIP3      OH2             6.7627228566      -18.0164012121        4.8125385013  W2        309             0.0000000000
       926       309  TIP3      H1              5.9115728566      -17.7780212121        4.4451785013  W2        309             0.0000000000
       927       309  TIP3      H2              7.3530628566      -18.0330812121        4.0592485013  W2        309             0.0000000000
       928       310  TIP3      OH2             5.0946928566      -15.0305312121       -7.5594014987  W2        310             0.0000000000
       929       310  TIP3      H1              4.7218028566      -15.8561512121       -7.2503414987  W2        310             0.0000000000
       930       310  TIP3      H2              5.3720428566      -15.2135912121       -8.4570614987  W2        310             0.0000000000
       931       311  TIP3      OH2             2.2550828566      -20.2225812121       -0.5382114987  W2        311             0.0000000000
       932       311  TIP3      H1              1.3267728566      -20.4543912121       -0.5652814987  W2        311             0.0000000000
       933       311  TIP3      H2              2.7061928566      -20.9996012121       -0.8683314987  W2        311             0.0000000000
       934       312  TIP3      OH2            -5.2016071434      -15.8944212121       -4.4053414987  W2        312             0.0000000000
       935       312  TIP3      H1             -4.6743871434      -15.1209812121       -4.6054614987  W2        312             0.0000000000
       936       312  TIP3      H2             -6.0817571434      -15.6695012121       -4.7069414987  W2        312             0.0000000000
       937       313  TIP3      OH2            -9.4468371434      -21.0320112121       -9.8181014987  W2        313             0.0000000000
       938       313  TIP3      H1             -8.8308471434      -20.4052912121       -9.4386214987  W2        313             0.0000000000
       939       313  TIP3      H2            -10.3085771434      -20.7160312121       -9.5464514987  W2        313             0.0000000000
       940       314  TIP3      OH2            -3.7743771434      -18.2314312121       -4.8289114987  W2        314             0.0000000000
       941       314  TIP3      H1             -4.0153771434      -17.3059912121       -4.7873814987  W2        314             0.0000000000
       942       314  TIP3      H2             -4.5150171434      -18.6903012121       -4.4325214987  W2        314             0.0000000000
       943       315  TIP3      OH2            -3.2597171434      -14.0820712121        1.4861985013  W2        315             0.0000000000
       944       315  TIP3      H1             -2.8972471434      -13.2275112121        1.2526385013  W2        315             0.0000000000
       945       315  TIP3      H2             -2.7281971434      -14.3739112121        2.2268285013  W2        315             0.0000000000
       946       316  TIP3      OH2            -5.0912971434      -13.2096712121       -5.2836914987  W2        316             0.0000000000
       947       316  TIP3      H1             -6.0412471434      -13.1039312121       -5.2323614987  W2        316             0.0000000000
       948       316  TIP3      H2             -4.7394871434      -12.3889312121       -4.9389414987  W2        316             0.0000000000
       949       317  TIP3      OH2             0.2843628566      -17.9830012121        1.1867585013  W2        317             0.0000000000
       950       317  TIP3      H1             -0.1415071434      -18.2108312121        2.0131585013  W2        317             0.0000000000
       951       317  TIP3      H2              0.8649428566      -18.7218212121        1.0042885013  W2        317             0.0000000000
       952       318  TIP3      OH2             2.4872528566      -17.0539512121       -9.7393414987  W2        318             0.0000000000
       953       318  TIP3      H1              2.8405628566      -17.4339712121       -8.9349914987  W2        318             0.0000000000
       954       318  TIP3      H2              1.5386028566      -17.1474712121       -9.6524114987  W2        318             0.0000000000
       955       319  TIP3      OH2             2.9427828566      -13.4310512121        3.6562385013  W2        319             0.0000000000
       956       319  TIP3      H1              2.3411028566      -13.9867612121        3.1608685013  W2        319             0.0000000000
       957       319  TIP3      H2              3.2241528566      -12.7640712121        3.0299785013  W2        319             0.0000000000
       958       320  TIP3      OH2             6.9906928566      -12.5747012121       -9.5383214987  W2        320             0.0000000000
       959       320  TIP3      H1              7.7344828566      -11.9886512121       -9.6781614987  W2        320             0.0000000000
       960       320  TIP3      H2              6.2965028566      -12.0061212121       -9.2050814987  W2        320             0.0000000000
       961       321  TIP3      OH2            -8.9346271434      -26.1982812121        3.0634985013  W2        321             0.0000000000
       962       321  TIP3      H1             -9.8273971434      -25.8597412121        2.9958985013  W2        321             0.0000000000
       963       321  TIP3      H2             -9.0333471434      -27.0536712121        3.4815785013  W2        321             0.0000000000
       964       322  TIP3      OH2             3.3531828566      -18.3817512121       -7.5125514987  W2        322             0.0000000000
       965       322  TIP3      H1              3.0759428566      -19.1098212121       -6.9564414987  W2        322             0.0000000000
       966       322  TIP3      H2              4.2804828566      -18.2625512121       -7.3072914987  W2        322             0.0000000000
       967       323  TIP3      OH2            -9.2834271434      -14.3938412121        1.4984385013  W2        323             0.0000000000
       968       323  TIP3      H1             -9.0663971434      -15.3256012121        1.4674085013  W2        323             0.0000000000
       969       323  TIP3      H2             -9.0370771434      -14.1193412121        2.3817185013  W2        323             0.0000000000
       970       324  TIP3      OH2            -3.4219671434      -15.9423412121      -11.2923414987  W2        324             0.0000000000
       971       324  TIP3      H1             -3.1829871434      -16.6905312121      -11.8394514987  W2        324             0.0000000000
       972       324  TIP3      H2             -3.6908371434      -16.3301712121      -10.4595614987  W2        324             0.0000000000
       973       325  TIP3      OH2            -4.4849071434      -16.3719612121       -8.8360814987  W2        325             0.0000000000
       974       325  TIP3      H1             -4.3381071434      -16.8919812121       -8.0459914987  W2        325             0.0000000000
       975       325  TIP3      H2             -4.4877371434      -15.4652012121       -8.5294914987  W2        325             0.0000000000
       976       326  TIP3      OH2            -8.0317971434      -19.1196312121       -8.3255414987  W2        326             0.0000000000
       977       326  TIP3      H1             -8.7178671434      -18.7673812121       -7.7585714987  W2        326             0.0000000000
       978       326  TIP3      H2             -7.5090071434      -18.3566712121       -8.5721114987  W2        326             0.0000000000
       979       327  TIP3      OH2            -0.2002871434      -26.4572512121        1.9533585013  W2        327             0.0000000000
       980       327  TIP3      H1              0.4985028566      -26.3833812121        2.6033285013  W2        327             0.0000000000
       981       327  TIP3      H2             -0.5811471434      -27.3217512121        2.1076485013  W2        327             0.0000000000
       982       328  TIP3      OH2             0.5842028566      -26.8050812121       -6.9494114987  W2        328             0.0000000000
       983       328  TIP3      H1              0.8040328566      -26.3335412121       -7.7528714987  W2        328             0.0000000000
       984       328  TIP3      H2              1.1426028566      -26.4108212121       -6.2793514987  W2        328             0.0000000000
       985       329  TIP3      OH2            -1.7471871434      -14.6746012121       -8.0866614987  W2        329             0.0000000000
       986       329  TIP3      H1             -2.5635771434      -14.1776312121       -8.0342314987  W2        329             0.0000000000
       987       329  TIP3      H2             -1.2175571434      -14.1992512121       -8.7267814987  W2        329             0.0000000000
       988       330  TIP3      OH2            -2.2158071434      -25.0772012121       -6.1145714987  W2        330             0.0000000000
       989       330  TIP3      H1             -1.4035471434      -24.5728812121       -6.0684014987  W2        330             0.0000000000
       990       330  TIP3      H2             -2.4605071434      -25.2222312121       -5.2006114987  W2        330             0.0000000000
       991       331  TIP3      OH2            -1.6801671434      -24.0909312121        3.0700885013  W2        331             0.0000000000
       992       331  TIP3      H1             -1.5611371434      -23.5173912121        3.8271285013  W2        331             0.0000000000
       993       331  TIP3      H2             -1.0247071434      -24.7789912121        3.1848685013  W2        331             0.0000000000
       994       332  TIP3      OH2            -1.3321371434      -27.9959012121       -5.1764614987  W2        332             0.0000000000
       995       332  TIP3      H1             -1.6787871434      -27.3788412121       -4.5320314987  W2        332             0.0000000000
       996       332  TIP3      H2             -0.6734471434      -27.4953312121       -5.6579114987  W2        332             0.0000000000
       997       333  TIP3      OH2            -4.4088771434      -13.6308812121       -8.1049714987  W2        333             0.0000000000
       998       333  TIP3      H1             -4.2480071434      -12.8311312121       -8.6057114987  W2        333             0.0000000000
       999       333  TIP3      H2             -4.6060971434      -13.3242812121       -7.2199114987  W2        333             0.0000000000
      1000       334  TIP3      OH2            -5.6744371434      -26.9329612121       -8.4892114987  W2        334             0.0000000000
      1001       334  TIP3      H1             -5.7579571434      -26.0446512121       -8.1425714987  W2        334             0.0000000000
      1002       334  TIP3      H2             -4.7844071434      -27.1982912121       -8.2575314987  W2        334             0.0000000000
      1003       335  TIP3      OH2             4.5244128566      -26.1839012121        3.9050585013  W2        335             0.0000000000
      1004       335  TIP3      H1              3.6079928566      -25.9217312121        3.8174285013  W2        335             0.0000000000
      1005       335  TIP3      H2              4.8599128566      -26.1870012121        3.0085885013  W2        335             0.0000000000
      1006       336  TIP3      OH2             3.1265128566      -22.4338012121       -1.9992114987  W2        336             0.0000000000
      1007       336  TIP3      H1              2.3289528566      -22.8487812121       -2.3277114987  W2        336             0.0000000000
      1008       336  TIP3      H2              3.5716228566      -23.1244312121       -1.5081614987  W2        336             0.0000000000
      1009       337  TIP3      OH2            -7.4159071434      -16.5057412121       -9.4287614987  W2        337             0.0000000000
      1010       337  TIP3      H1             -6.8237571434      -15.8062612121       -9.1525214987  W2        337             0.0000000000
      1011       337  TIP3      H2             -6.9566071434      -16.9387912121      -10.1483014987  W2        337             0.0000000000
      1012       338  TIP3      OH2            -9.0999871434      -23.8414412121      -10.3128214987  W2        338             0.0000000000
      1013       338  TIP3      H1             -9.1447271434      -22.9021312121      -10.1341214987  W2        338             0.0000000000
      1014       338  TIP3      H2             -9.9876671434      -24.0769512121      -10.5826114987  W2        338             0.0000000000
      1015       339  TIP3      OH2             4.2129728566      -13.1775512121       -0.3768614987  W2        339             0.0000000000
      1016       339  TIP3      H1              4.0574028566      -12.4991112121       -1.0339314987  W2        339             0.0000000000
      1017       339  TIP3      H2              5.1456128566      -13.1056212121       -0.1738014987  W2        339             0.0000000000
      1018       340  TIP3      OH2            -8.2917871434      -29.0597812121       -1.6397214987  W2        340             0.0000000000
      1019       340  TIP3      H1             -8.5208071434      -29.0005312121       -2.5672214987  W2        340             0.0000000000
      1020       340  TIP3      H2             -8.7344471434      -29.8512312121       -1.3333114987  W2        340             0.0000000000
      1021       341  TIP3      OH2            -9.3614571434      -15.1190712121       -5.4791414987  W2        341             0.0000000000
      1022       341  TIP3      H1            -10.1935971434      -14.6468012121       -5.4520014987  W2        341             0.0000000000
      1023       341  TIP3      H2             -8.8156271434      -14.6093112121       -6.0778314987  W2        341             0.0000000000
      1024       342  TIP3      OH2           -10.0730871434      -12.5067012121        5.8506585013  W2        342             0.0000000000
      1025       342  TIP3      H1             -9.5328671434      -12.7233012121        6.6105785013  W2        342             0.0000000000
      1026       342  TIP3      H2            -10.5542871434      -13.3121012121        5.6609085013  W2        342             0.0000000000
      1027       343  TIP3      OH2            -5.4757471434      -13.5872612121        7.4710785013  W2        343             0.0000000000
      1028       343  TIP3      H1             -4.7080271434      -14.0461812121        7.8119985013  W2        343             0.0000000000
      1029       343  TIP3      H2             -5.4971271434      -13.8132812121        6.5411985013  W2        343             0.0000000000
      1030       344  TIP3      OH2            -1.3837871434      -14.0792012121      -11.1537414987  W2        344             0.0000000000
      1031       344  TIP3      H1             -2.0276871434      -14.7103412121      -10.8323714987  W2        344             0.0000000000
      1032       344  TIP3      H2             -0.6219571434      -14.6104012121      -11.3853914987  W2        344             0.0000000000
      1033       345  TIP3      OH2             1.1011228566      -15.2071512121        6.2002285013  W2        345             0.0000000000
      1034       345  TIP3      H1              0.7500728566      -16.0638512121        6.4432685013  W2        345             0.0000000000
      1035       345  TIP3      H2              1.8274428566      -15.0644812121        6.8071285013  W2        345             0.0000000000
      1036       346  TIP3      OH2             3.2205028566      -14.2622112121      -10.9199414987  W2        346             0.0000000000
      1037       346  TIP3      H1              3.5035428566      -15.0566912121      -10.4672514987  W2        346             0.0000000000
      1038       346  TIP3      H2              3.9602928566      -14.0291112121      -11.4808314987  W2        346             0.0000000000
      1039       347  TIP3      OH2           -10.1661371434      -18.6962912121        6.8050885013  W2        347             0.0000000000
      1040       347  TIP3      H1            -10.0220871434      -19.5982212121        6.5187585013  W2        347             0.0000000000
      1041       347  TIP3      H2            -10.9383971434      -18.4100812121        6.3173185013  W2        347             0.0000000000
      1042       348  TIP3      OH2            -5.8247671434      -18.3527212121      -11.0624514987  W2        348             0.0000000000
      1043       348  TIP3      H1             -5.7603571434      -19.1467612121      -10.5318114987  W2        348             0.0000000000
      1044       348  TIP3      H2             -5.1718471434      -18.4714412121      -11.7522514987  W2        348             0.0000000000
      1045       349  TIP3      OH2            -3.5105271434      -18.7264812121        6.2377285013  W2        349             0.0000000000
      1046       349  TIP3      H1             -3.8391471434      -18.4556712121        5.3804685013  W2        349             0.0000000000
      1047       349  TIP3      H2             -3.3587071434      -19.6675012121        6.1502285013  W2        349             0.0000000000
      1048       350  TIP3      OH2            -0.4724271434      -17.3055512121      -11.3266514987  W2        350             0.0000000000
      1049       350  TIP3      H1             -0.7410171434      -17.1253412121      -10.4257614987  W2        350             0.0000000000
      1050       350  TIP3      H2             -0.6788671434      -18.2309312121      -11.4580714987  W2        350             0.0000000000
      1051       351  TIP3      OH2             2.2239928566      -18.8107512121        3.6209585013  W2        351             0.0000000000
      1052       351  TIP3      H1              2.9694728566      -18.2223812121        3.5013585013  W2        351             0.0000000000
      1053       351  TIP3      H2              1.4666728566      -18.2287812121        3.6842685013  W2        351             0.0000000000
      1054       352  TIP3      OH2            -9.3334871434      -21.4959612121        6.2250185013  W2        352             0.0000000000
      1055       352  TIP3      H1             -8.9253671434      -22.3533012121        6.1040785013  W2        352             0.0000000000
      1056       352  TIP3      H2             -9.5937271434      -21.4818312121        7.1460485013  W2        352             0.0000000000
      1057       353  TIP3      OH2            -4.6753871434      -20.3801012121       -8.7566514987  W2        353             0.0000000000
      1058       353  TIP3      H1             -5.1351871434      -20.8642712121       -8.0708014987  W2        353             0.0000000000
      1059       353  TIP3      H2             -4.4205171434      -21.0485612121       -9.3926014987  W2        353             0.0000000000
      1060       354  TIP3      OH2            -5.3864571434      -22.4873912121        3.5993085013  W2        354             0.0000000000
      1061       354  TIP3      H1             -6.0048471434      -21.8127312121        3.8797785013  W2        354             0.0000000000
      1062       354  TIP3      H2             -5.0423371434      -22.1660012121        2.7659285013  W2        354             0.0000000000
      1063       355  TIP3      OH2            -3.6043471434      -22.1369212121      -10.4943314987  W2        355             0.0000000000
      1064       355  TIP3      H1             -3.7848471434      -22.2918012121      -11.4215014987  W2        355             0.0000000000
      1065       355  TIP3      H2             -2.6542971434      -22.0290512121      -10.4495414987  W2        355             0.0000000000
      1066       356  TIP3      OH2            -0.3666371434      -20.0158612121        6.8767885013  W2        356             0.0000000000
      1067       356  TIP3      H1              0.5864828566      -19.9319512121        6.8493885013  W2        356             0.0000000000
      1068       356  TIP3      H2             -0.5271771434      -20.7276812121        7.4962785013  W2        356             0.0000000000
      1069       357  TIP3      OH2             5.7854828566      -19.7825012121      -11.0485214987  W2        357             0.0000000000
      1070       357  TIP3      H1              5.5119628566      -20.2069512121      -11.8616914987  W2        357             0.0000000000
      1071       357  TIP3      H2              5.8248928566      -18.8510512121      -11.2654814987  W2        357             0.0000000000
      1072       358  TIP3      OH2            -5.0470871434      -25.1323112121        4.6816185013  W2        358             0.0000000000
      1073       358  TIP3      H1             -4.8969971434      -25.8611812121        4.0795885013  W2        358             0.0000000000
      1074       358  TIP3      H2             -5.0448471434      -24.3551412121        4.1228385013  W2        358             0.0000000000
      1075       359  TIP3      OH2            -4.6345171434      -26.7627312121        2.1743585013  W2        359             0.0000000000
      1076       359  TIP3      H1             -4.0987671434      -26.3110612121        1.5222885013  W2        359             0.0000000000
      1077       359  TIP3      H2             -5.4865571434      -26.8707512121        1.7517685013  W2        359             0.0000000000
      1078       360  TIP3      OH2            -3.0526771434      -21.3231112121        2.4138785013  W2        360             0.0000000000
      1079       360  TIP3      H1             -2.3021971434      -21.4793612121        1.8406585013  W2        360             0.0000000000
      1080       360  TIP3      H2             -3.3918471434      -20.4714512121        2.1384285013  W2        360             0.0000000000
      1081       361  TIP3      OH2             1.3629428566      -23.5079312121        7.4424085013  W2        361             0.0000000000
      1082       361  TIP3      H1              1.5550728566      -24.4389912121        7.3308585013  W2        361             0.0000000000
      1083       361  TIP3      H2              2.2205728566      -23.0829812121        7.4319485013  W2        361             0.0000000000
      1084       362  TIP3      OH2             2.6796628566      -20.7194112121        5.5196785013  W2        362             0.0000000000
      1085       362  TIP3      H1              2.3981628566      -20.0099512121        4.9420585013  W2        362             0.0000000000
      1086       362  TIP3      H2              3.6220928566      -20.7921112121        5.3687985013  W2        362             0.0000000000
      1087       363  TIP3      OH2            -6.5684571434      -23.9339612121        6.5931785013  W2        363             0.0000000000
      1088       363  TIP3      H1             -7.3355571434      -24.4664812121        6.3829385013  W2        363             0.0000000000
      1089       363  TIP3      H2             -5.8895571434      -24.2439212121        5.9938085013  W2        363             0.0000000000
      1090       364  TIP3      OH2            -3.8289671434      -29.3061612121        2.6057185013  W2        364             0.0000000000
      1091       364  TIP3      H1             -3.9270071434      -28.3598412121        2.5003385013  W2        364             0.0000000000
      1092       364  TIP3      H2             -4.5713471434      -29.6787812121        2.1300685013  W2        364             0.0000000000
      1093       365  TIP3      OH2            -2.5649171434      -24.9846212121        6.1695585013  W2        365             0.0000000000
      1094       365  TIP3      H1             -2.8003771434      -25.2039512121        7.0710485013  W2        365             0.0000000000
      1095       365  TIP3      H2             -3.3482271434      -25.1915012121        5.6598085013  W2        365             0.0000000000
      1096       366  TIP3      OH2             0.1507428566      -25.8572712121        5.2449085013  W2        366             0.0000000000
      1097       366  TIP3      H1             -0.7967171434      -25.8253012121        5.3772385013  W2        366             0.0000000000
      1098       366  TIP3      H2              0.4634128566      -26.4825612121        5.8987285013  W2        366             0.0000000000
      1099       367  TIP3      OH2             1.7848928566      -27.2231612121        7.2500985013  W2        367             0.0000000000
      1100       367  TIP3      H1              1.6880728566      -28.1754312121        7.2442885013  W2        367             0.0000000000
      1101       367  TIP3      H2              1.4632028566      -26.9544812121        8.1106485013  W2        367             0.0000000000
      1102       368  TIP3      OH2            -8.3881771434      -26.0135812121        6.2976485013  W2        368             0.0000000000
      1103       368  TIP3      H1             -8.1764371434      -26.7199712121        5.6873985013  W2        368             0.0000000000
      1104       368  TIP3      H2             -8.4994271434      -26.4509812121        7.1417685013  W2        368             0.0000000000
      1105       369  TIP3      OH2            -3.6071571434      -30.0124212121        5.2769985013  W2        369             0.0000000000
      1106       369  TIP3      H1             -2.8953171434      -30.6522012121        5.2629085013  W2        369             0.0000000000
      1107       369  TIP3      H2             -3.7081171434      -29.7455912121        4.3633085013  W2        369             0.0000000000
      1108       370  TIP3      OH2            -3.2534071434      -28.3295812121        7.3306285013  W2        370             0.0000000000
      1109       370  TIP3      H1             -3.3851871434      -28.8052012121        6.5104785013  W2        370             0.0000000000
      1110       370  TIP3      H2             -3.8526671434      -27.5852212121        7.2753385013  W2        370             0.0000000000
      1111       371  TIP3      OH2            -3.7071771434      -11.4465512121       -9.4929714987  W2        371             0.0000000000
      1112       371  TIP3      H1             -2.7741071434      -11.2886812121       -9.3491314987  W2        371             0.0000000000
      1113       371  TIP3      H2             -3.9712971434      -10.7712512121      -10.1178214987  W2        371             0.0000000000
      1114       372  TIP3      OH2           -10.1386871434      -16.8101712121      -10.0101614987  W2        372             0.0000000000
      1115       372  TIP3      H1             -9.2247671434      -16.7312812121       -9.7367714987  W2        372             0.0000000000
      1116       372  TIP3      H2            -10.1313771434      -17.4972112121      -10.6766014987  W2        372             0.0000000000
      1117       373  TIP3      OH2           -11.4896271434      -11.4173212121       -4.9327714987  W2        373             0.0000000000
      1118       373  TIP3      H1            -12.1369171434      -11.8791512121       -5.4656514987  W2        373             0.0000000000
      1119       373  TIP3      H2            -11.1351671434      -12.0889912121       -4.3501514987  W2        373             0.0000000000
      1120       374  TIP3      OH2           -10.6197071434      -13.3366212121       -3.1281514987  W2        374             0.0000000000
      1121       374  TIP3      H1            -10.9540271434      -14.2168912121       -2.9561314987  W2        374             0.0000000000
      1122       374  TIP3      H2            -10.3974671434      -12.9911212121       -2.2635914987  W2        374             0.0000000000
      1123       375  TIP3      OH2             6.9287728566      -12.5269812121       -0.1476714987  W2        375             0.0000000000
      1124       375  TIP3      H1              6.9074428566      -12.3421412121        0.7912685013  W2        375             0.0000000000
      1125       375  TIP3      H2              7.6193928566      -11.9585812121       -0.4885314987  W2        375             0.0000000000
      1126       376  TIP3      OH2             6.4920628566      -12.9598712121        2.7742385013  W2        376             0.0000000000
      1127       376  TIP3      H1              6.0049328566      -13.6954612121        2.4029785013  W2        376             0.0000000000
      1128       376  TIP3      H2              7.0413328566      -13.3534812121        3.4521785013  W2        376             0.0000000000
      1129       377  TIP3      OH2             4.9427928566      -17.1700612121        7.4122685013  W2        377             0.0000000000
      1130       377  TIP3      H1              4.0769028566      -17.2750912121        7.8064985013  W2        377             0.0000000000
      1131       377  TIP3      H2              5.3193828566      -16.4117312121        7.8587385013  W2        377             0.0000000000
      1132       378  TIP3      OH2             6.2437628566      -18.9136912121       -7.0734814987  W2        378             0.0000000000
      1133       378  TIP3      H1              7.0939028566      -18.4926012121       -6.9463214987  W2        378             0.0000000000
      1134       378  TIP3      H2              6.2492728566      -19.6536812121       -6.4663414987  W2        378             0.0000000000
      1135       379  TIP3      OH2             6.6383228566      -20.8599512121       -5.2499114987  W2        379             0.0000000000
      1136       379  TIP3      H1              5.9117828566      -21.3396912121       -4.8521514987  W2        379             0.0000000000
      1137       379  TIP3      H2              7.2196528566      -20.6544812121       -4.5177514987  W2        379             0.0000000000
      1138       380  TIP3      OH2             6.3974428566      -18.0752012121       -0.3021514987  W2        380             0.0000000000
      1139       380  TIP3      H1              7.2308628566      -18.4532012121       -0.5827914987  W2        380             0.0000000000
      1140       380  TIP3      H2              6.5094728566      -17.1320812121       -0.4212414987  W2        380             0.0000000000
      1141       381  TIP3      OH2             4.8836728566      -15.1974512121        2.0046885013  W2        381             0.0000000000
      1142       381  TIP3      H1              4.2362028566      -14.8723012121        2.6302085013  W2        381             0.0000000000
      1143       381  TIP3      H2              4.3660728566      -15.6376812121        1.3305185013  W2        381             0.0000000000
      1144       382  TIP3      OH2             6.9066328566      -20.9591012121       -8.8587814987  W2        382             0.0000000000
      1145       382  TIP3      H1              6.3847428566      -20.6026912121       -9.5776914987  W2        382             0.0000000000
      1146       382  TIP3      H2              6.8735528566      -20.2843212121       -8.1806914987  W2        382             0.0000000000
      1147       383  TIP3      OH2             5.2555328566      -23.7195412121      -10.3080714987  W2        383             0.0000000000
      1148       383  TIP3      H1              5.3519728566      -23.0528412121      -10.9881014987  W2        383             0.0000000000
      1149       383  TIP3      H2              5.1154928566      -24.5349112121      -10.7895214987  W2        383             0.0000000000
      1150       384  TIP3      OH2             4.4250028566      -22.3393012121       -4.6870414987  W2        384             0.0000000000
      1151       384  TIP3      H1              4.2748828566      -23.2844412121       -4.7072614987  W2        384             0.0000000000
      1152       384  TIP3      H2              4.0714528566      -22.0581612121       -3.8431314987  W2        384             0.0000000000
      1153       385  TIP3      OH2           -10.5397571434      -20.2610812121       -0.6766614987  W2        385             0.0000000000
      1154       385  TIP3      H1            -10.3554671434      -20.3429112121       -1.6123714987  W2        385             0.0000000000
      1155       385  TIP3      H2             -9.6904671434      -20.3853812121       -0.2530214987  W2        385             0.0000000000
      1156       386  TIP3      OH2             5.2812928566      -20.3689712121        4.9517885013  W2        386             0.0000000000
      1157       386  TIP3      H1              5.8640228566      -21.1037412121        5.1435085013  W2        386             0.0000000000
      1158       386  TIP3      H2              5.8452228566      -19.5969412121        4.9983685013  W2        386             0.0000000000
      1159       387  TIP3      OH2             6.7780028566      -22.4663912121        5.6363285013  W2        387             0.0000000000
      1160       387  TIP3      H1              5.9146728566      -22.8451812121        5.4707985013  W2        387             0.0000000000
      1161       387  TIP3      H2              7.3823728566      -23.2049112121        5.5619085013  W2        387             0.0000000000
      1162       388  TIP3      OH2             4.5029128566      -26.3115612121      -11.1905214987  W2        388             0.0000000000
      1163       388  TIP3      H1              5.1134928566      -26.6828812121      -10.5537014987  W2        388             0.0000000000
      1164       388  TIP3      H2              3.6660628566      -26.7328712121      -10.9945214987  W2        388             0.0000000000
      1165       389  TIP3      OH2             4.1354828566      -24.7567212121       -6.2245314987  W2        389             0.0000000000
      1166       389  TIP3      H1              4.4151928566      -25.6636812121       -6.1003614987  W2        389             0.0000000000
      1167       389  TIP3      H2              4.8946528566      -24.3225712121       -6.6136114987  W2        389             0.0000000000
      1168       390  TIP3      OH2             4.7473128566      -24.1749812121       -0.7886414987  W2        390             0.0000000000
      1169       390  TIP3      H1              5.6801128566      -23.9629912121       -0.8230414987  W2        390             0.0000000000
      1170       390  TIP3      H2              4.5120628566      -24.0737712121        0.1336585013  W2        390             0.0000000000
      1171       391  TIP3      OH2             4.7765028566      -23.4384512121        1.9872985013  W2        391             0.0000000000
      1172       391  TIP3      H1              3.9336328566      -23.1704112121        2.3532785013  W2        391             0.0000000000
      1173       391  TIP3      H2              5.2189328566      -22.6162612121        1.7764085013  W2        391             0.0000000000
      1174       392  TIP3      OH2           -10.9422771434      -24.9905812121        5.4642185013  W2        392             0.0000000000
      1175       392  TIP3      H1            -10.0227871434      -25.1127512121        5.7005285013  W2        392             0.0000000000
      1176       392  TIP3      H2            -11.3918271434      -25.7406112121        5.8535685013  W2        392             0.0000000000
      1177       393  TIP3      OH2             7.0596628566      -29.4584312121        7.3407985013  W2        393             0.0000000000
      1178       393  TIP3      H1              7.4093628566      -30.1120812121        6.7352685013  W2        393             0.0000000000
      1179       393  TIP3      H2              7.2066128566      -28.6210212121        6.9010585013  W2        393             0.0000000000
      1180       394  TIP3      OH2             4.7489628566      -27.4937912121       -6.1763314987  W2        394             0.0000000000
      1181       394  TIP3      H1              4.9314628566      -27.9426412121       -5.3508314987  W2        394             0.0000000000
      1182       394  TIP3      H2              4.1492528566      -28.0783512121       -6.6398714987  W2        394             0.0000000000
      1183       395  TIP3      OH2            -9.7210271434      -26.6784212121       -1.6444914987  W2        395             0.0000000000
      1184       395  TIP3      H1             -9.2758671434      -27.4701712121       -1.3425214987  W2        395             0.0000000000
      1185       395  TIP3      H2             -9.2547271434      -25.9619012121       -1.2139314987  W2        395             0.0000000000
      1186       396  TIP3      OH2           -11.4169971434      -23.6791212121       -0.5754714987  W2        396             0.0000000000
      1187       396  TIP3      H1            -10.9250171434      -23.9000712121       -1.3662714987  W2        396             0.0000000000
      1188       396  TIP3      H2            -11.0549071434      -22.8387812121       -0.2945214987  W2        396             0.0000000000
      1189       397  TIP3      OH2             6.5793828566      -27.3489712121        5.6899285013  W2        397             0.0000000000
      1190       397  TIP3      H1              5.6619528566      -27.0782612121        5.6542785013  W2        397             0.0000000000
      1191       397  TIP3      H2              6.7023228566      -27.8841312121        4.9058985013  W2        397             0.0000000000
      1192       398  TIP3      OH2             6.6155828566      -27.4259812121       -9.6483014987  W2        398             0.0000000000
      1193       398  TIP3      H1              7.0278428566      -28.1474112121      -10.1235014987  W2        398             0.0000000000
      1194       398  TIP3      H2              7.2972328566      -26.7565212121       -9.5898714987  W2        398             0.0000000000
      1195       399  TIP3      OH2           -11.1033471434      -27.4212112121       -6.5212314987  W2        399             0.0000000000
      1196       399  TIP3      H1            -12.0285071434      -27.2125512121       -6.6506814987  W2        399             0.0000000000
      1197       399  TIP3      H2            -10.6493571434      -26.9371312121       -7.2110014987  W2        399             0.0000000000
      1198       400  TIP3      OH2             3.6673728566      -12.4370412121       -4.5754914987  W2        400             0.0000000000
      1199       400  TIP3      H1              4.3196628566      -12.7848312121       -5.1835814987  W2        400             0.0000000000
      1200       400  TIP3      H2              4.1777528566      -11.9487212121       -3.9295214987  W2        400             0.0000000000
      1201       401  TIP3      OH2           -11.1398071434      -28.6833112121        1.8230185013  W2        401             0.0000000000
      1202       401  TIP3      H1            -11.8047571434      -28.9292812121        2.4661085013  W2        401             0.0000000000
      1203       401  TIP3      H2            -11.5826771434      -28.0612712121        1.2458185013  W2        401             0.0000000000
      1204       402  TIP3      OH2            -8.9478771434      -15.5079012121        5.9675985013  W2        402             0.0000000000
      1205       402  TIP3      H1             -9.7686271434      -15.3332512121        5.5070685013  W2        402             0.0000000000
      1206       402  TIP3      H2             -9.2000971434      -15.5814312121        6.8880385013  W2        402             0.0000000000
      1207       403  TIP3      OH2            -5.9935871434      -14.5337812121        2.2259985013  W2        403             0.0000000000
      1208       403  TIP3      H1             -6.4184771434      -13.7239312121        1.9434585013  W2        403             0.0000000000
      1209       403  TIP3      H2             -5.0893071434      -14.4483712121        1.9239785013  W2        403             0.0000000000
      1210       404  TIP3      OH2            -1.6824471434      -13.1347812121        5.1853685013  W2        404             0.0000000000
      1211       404  TIP3      H1             -1.4976971434      -13.4681712121        6.0633985013  W2        404             0.0000000000
      1212       404  TIP3      H2             -0.8359971434      -12.8249212121        4.8632885013  W2        404             0.0000000000
      1213       405  TIP3      OH2             0.6625928566      -11.8488912121        4.4295085013  W2        405             0.0000000000
      1214       405  TIP3      H1              1.3394828566      -12.4816612121        4.1894285013  W2        405             0.0000000000
      1215       405  TIP3      H2              0.9844728566      -11.4478412121        5.2368385013  W2        405             0.0000000000
      1216       406  TIP3      OH2             5.5799728566      -29.2593412121        3.5090085013  W2        406             0.0000000000
      1217       406  TIP3      H1              4.7673228566      -28.9343112121        3.1214785013  W2        406             0.0000000000
      1218       406  TIP3      H2              5.8128228566      -30.0194912121        2.9759185013  W2        406             0.0000000000
      1219       407  TIP3      OH2            -8.5919171434      -11.2773912121        2.2735285013  W2        407             0.0000000000
      1220       407  TIP3      H1             -9.3122771434      -10.8372912121        1.8222985013  W2        407             0.0000000000
      1221       407  TIP3      H2             -8.9575171434      -11.5279212121        3.1219285013  W2        407             0.0000000000
      1222       408  TIP3      OH2            -6.1246571434      -11.6770012121        1.3032485013  W2        408             0.0000000000
      1223       408  TIP3      H1             -6.9894371434      -11.6051512121        1.7072585013  W2        408             0.0000000000
      1224       408  TIP3      H2             -6.1797571434      -11.1302712121        0.5194985013  W2        408             0.0000000000
      1225       409  TIP3      OH2            -1.4140971434      -11.7891112121        0.4788485013  W2        409             0.0000000000
      1226       409  TIP3      H1             -1.8706971434      -11.2601412121       -0.1753114987  W2        409             0.0000000000
      1227       409  TIP3      H2             -1.2512971434      -11.1859712121        1.2040785013  W2        409             0.0000000000
      1228       410  TIP3      OH2             0.9135328566      -12.9111512121        1.4238785013  W2        410             0.0000000000
      1229       410  TIP3      H1              0.0089028566      -12.7461312121        1.1580885013  W2        410             0.0000000000
      1230       410  TIP3      H2              1.3423928566      -12.0579312121        1.3582185013  W2        410             0.0000000000
      1231       411  TIP3      OH2             3.5177228566      -11.3412412121        1.7186585013  W2        411             0.0000000000
      1232       411  TIP3      H1              3.3359228566      -10.4253512121        1.5081485013  W2        411             0.0000000000
      1233       411  TIP3      H2              3.6945028566      -11.7515312121        0.8721185013  W2        411             0.0000000000
      1234       412  TIP3      OH2            -9.1771071434      -12.6541412121       -0.8162914987  W2        412             0.0000000000
      1235       412  TIP3      H1             -9.1955071434      -13.0796312121        0.0409385013  W2        412             0.0000000000
      1236       412  TIP3      H2             -8.3723171434      -12.9726412121       -1.2250714987  W2        412             0.0000000000
      1237       413  TIP3      OH2            -7.0357971434      -13.9442712121       -2.1613014987  W2        413             0.0000000000
      1238       413  TIP3      H1             -7.2547271434      -14.8605312121       -1.9917014987  W2        413             0.0000000000
      1239       413  TIP3      H2             -6.2115771434      -13.8042312121       -1.6951614987  W2        413             0.0000000000
      1240       414  TIP3      OH2            -4.4985471434      -13.4743412121       -1.3125014987  W2        414             0.0000000000
      1241       414  TIP3      H1             -4.2859771434      -14.3624412121       -1.5994114987  W2        414             0.0000000000
      1242       414  TIP3      H2             -4.4340371434      -13.5085712121       -0.3581014987  W2        414             0.0000000000
      1243       415  TIP3      OH2            -0.9901771434      -27.8102812121       -2.1681714987  W2        415             0.0000000000
      1244       415  TIP3      H1             -1.6644971434      -28.4397212121       -1.9125914987  W2        415             0.0000000000
      1245       415  TIP3      H2             -0.4262571434      -28.2943912121       -2.7713814987  W2        415             0.0000000000
      1246       416  TIP3      OH2             4.1525428566      -29.7028812121       -2.0554614987  W2        416             0.0000000000
      1247       416  TIP3      H1              4.7563028566      -29.1553412121       -2.5573614987  W2        416             0.0000000000
      1248       416  TIP3      H2              3.2827428566      -29.3838412121       -2.2960514987  W2        416             0.0000000000
      1249       417  TIP3      OH2             5.8795828566      -28.5640112121       -3.7223714987  W2        417             0.0000000000
      1250       417  TIP3      H1              6.4913328566      -29.0784412121       -4.2490114987  W2        417             0.0000000000
      1251       417  TIP3      H2              6.2619228566      -27.6868012121       -3.6989314987  W2        417             0.0000000000
      1252       418  TIP3      OH2            -8.6634271434      -29.1762512121       -4.3461814987  W2        418             0.0000000000
      1253       418  TIP3      H1             -9.4404471434      -29.4107612121       -4.8535914987  W2        418             0.0000000000
      1254       418  TIP3      H2             -8.1330671434      -29.9730412121       -4.3373814987  W2        418             0.0000000000
      1255       419  TIP3      OH2            -9.8270871434      -29.3784412121       -8.5425714987  W2        419             0.0000000000
      1256       419  TIP3      H1             -9.3880171434      -28.7673912121       -9.1342214987  W2        419             0.0000000000
      1257       419  TIP3      H2            -10.4608471434      -28.8400312121       -8.0685714987  W2        419             0.0000000000
      1258       420  TIP3      OH2            -4.0841671434      -29.2495412121       -4.5328714987  W2        420             0.0000000000
      1259       420  TIP3      H1             -3.2098271434      -28.8611112121       -4.5624414987  W2        420             0.0000000000
      1260       420  TIP3      H2             -4.2200871434      -29.4647612121       -3.6101514987  W2        420             0.0000000000
      1261       421  TIP3      OH2             1.4726728566      -29.2195612121       -2.8837014987  W2        421             0.0000000000
      1262       421  TIP3      H1              1.5488328566      -29.1244012121       -3.8331014987  W2        421             0.0000000000
      1263       421  TIP3      H2              1.1975928566      -30.1272712121       -2.7547914987  W2        421             0.0000000000
      1264       422  TIP3      OH2             2.8259328566      -29.1937812121       -7.1912014987  W2        422             0.0000000000
      1265       422  TIP3      H1              2.1230428566      -28.5788612121       -7.4010614987  W2        422             0.0000000000
      1266       422  TIP3      H2              2.3810728566      -30.0311112121       -7.0601114987  W2        422             0.0000000000
      1267       423  TIP3      OH2            -9.9261371434      -13.4302212121       -7.6450614987  W2        423             0.0000000000
      1268       423  TIP3      H1            -10.6111471434      -13.4683312121       -8.3125514987  W2        423             0.0000000000
      1269       423  TIP3      H2             -9.9224171434      -12.5174612121       -7.3568514987  W2        423             0.0000000000
      1270       424  TIP3      OH2            -7.9661771434      -27.4622912121      -10.1001614987  W2        424             0.0000000000
      1271       424  TIP3      H1             -7.4748371434      -28.0920512121      -10.6276114987  W2        424             0.0000000000
      1272       424  TIP3      H2             -7.3425471434      -27.1663512121       -9.4370414987  W2        424             0.0000000000
      1273       425  TIP3      OH2            -2.9401671434      -27.1691412121       -7.6431114987  W2        425             0.0000000000
      1274       425  TIP3      H1             -2.7620371434      -27.8158212121       -6.9602514987  W2        425             0.0000000000
      1275       425  TIP3      H2             -2.9935471434      -26.3353712121       -7.1760014987  W2        425             0.0000000000
      1276       426  TIP3      OH2            -1.0617871434      -12.2207312121       -9.2474414987  W2        426             0.0000000000
      1277       426  TIP3      H1             -0.1957671434      -11.8539912121       -9.4256214987  W2        426             0.0000000000
      1278       426  TIP3      H2             -1.3085071434      -12.6599312121      -10.0613614987  W2        426             0.0000000000
      1279       427  TIP3      OH2             5.6471728566      -12.6577012121       -6.5683314987  W2        427             0.0000000000
      1280       427  TIP3      H1              5.4528828566      -13.4054912121       -7.1333714987  W2        427             0.0000000000
      1281       427  TIP3      H2              5.6081828566      -11.8996912121       -7.1515414987  W2        427             0.0000000000
      1282       428  TIP3      OH2            -8.7056271434      -28.6620612121        5.1714385013  W2        428             0.0000000000
      1283       428  TIP3      H1             -9.0718071434      -29.4278012121        5.6139085013  W2        428             0.0000000000
      1284       428  TIP3      H2             -7.7927771434      -28.6330412121        5.4579485013  W2        428             0.0000000000
      1285       429  TIP3      OH2            -6.7325471434      -29.3116212121        6.7071485013  W2        429             0.0000000000
      1286       429  TIP3      H1             -5.8341871434      -29.5856012121        6.5224885013  W2        429             0.0000000000
      1287       429  TIP3      H2             -7.1192371434      -30.0540212121        7.1714085013  W2        429             0.0000000000
      1288       430  TIP3      OH2            -8.1080171434      -12.5101412121      -10.6198514987  W2        430             0.0000000000
      1289       430  TIP3      H1             -8.3755571434      -12.2238512121       -9.7465414987  W2        430             0.0000000000
      1290       430  TIP3      H2             -7.3367571434      -13.0562212121      -10.4676014987  W2        430             0.0000000000
      1291       431  TIP3      OH2             1.6886828566      -29.9790912121        6.8894285013  W2        431             0.0000000000
      1292       431  TIP3      H1              1.7654028566      -30.4050212121        7.7431985013  W2        431             0.0000000000
      1293       431  TIP3      H2              2.5823428566      -29.9656212121        6.5467785013  W2        431             0.0000000000
      1294       432  TIP3      OH2             4.8647928566      -13.9064612121        5.5818485013  W2        432             0.0000000000
      1295       432  TIP3      H1              4.0829828566      -14.0926612121        5.0619085013  W2        432             0.0000000000
      1296       432  TIP3      H2              4.7927828566      -12.9770312121        5.7990985013  W2        432             0.0000000000
      1297       433  TIP3      OH2            19.2708328566      -20.0200212121       -4.3874314987  W2        433             0.0000000000
      1298       433  TIP3      H1             19.3599428566      -19.0762012121       -4.5197214987  W2        433             0.0000000000
      1299       433  TIP3      H2             18.6325928566      -20.2953812121       -5.0454914987  W2        433             0.0000000000
      1300       434  TIP3      OH2            18.2039628566      -20.7649512121       -0.9686114987  W2        434             0.0000000000
      1301       434  TIP3      H1             18.1657128566      -21.4113212121       -0.2636514987  W2        434             0.0000000000
      1302       434  TIP3      H2             17.8816128566      -21.2315112121       -1.7397414987  W2        434             0.0000000000
      1303       435  TIP3      OH2            10.5724628566      -21.1507412121        0.6243785013  W2        435             0.0000000000
      1304       435  TIP3      H1             10.6136728566      -21.7764112121        1.3476185013  W2        435             0.0000000000
      1305       435  TIP3      H2             11.2752328566      -20.5268812121        0.8064185013  W2        435             0.0000000000
      1306       436  TIP3      OH2            21.9099828566      -17.8259112121       -2.6671014987  W2        436             0.0000000000
      1307       436  TIP3      H1             21.4692528566      -18.5463112121       -2.2165414987  W2        436             0.0000000000
      1308       436  TIP3      H2             21.8969528566      -17.1051912121       -2.0373314987  W2        436             0.0000000000
      1309       437  TIP3      OH2            11.4957728566      -16.7008512121       -0.8407114987  W2        437             0.0000000000
      1310       437  TIP3      H1             11.1262928566      -17.5028012121       -1.2102814987  W2        437             0.0000000000
      1311       437  TIP3      H2             12.4368828566      -16.8693612121       -0.7943714987  W2        437             0.0000000000
      1312       438  TIP3      OH2             8.1058228566      -23.0405912121       -5.4478314987  W2        438             0.0000000000
      1313       438  TIP3      H1              7.6581628566      -22.1947212121       -5.4661814987  W2        438             0.0000000000
      1314       438  TIP3      H2              7.5449428566      -23.6201712121       -5.9633214987  W2        438             0.0000000000
      1315       439  TIP3      OH2             8.8164328566      -20.8786312121       -3.3220314987  W2        439             0.0000000000
      1316       439  TIP3      H1              9.0297828566      -21.6484712121       -2.7947314987  W2        439             0.0000000000
      1317       439  TIP3      H2              9.5541928566      -20.7889612121       -3.9252714987  W2        439             0.0000000000
      1318       440  TIP3      OH2            19.0215328566      -12.7217412121       -2.4550614987  W2        440             0.0000000000
      1319       440  TIP3      H1             19.6411728566      -13.3982712121       -2.7281414987  W2        440             0.0000000000
      1320       440  TIP3      H2             18.8132728566      -12.9396612121       -1.5465714987  W2        440             0.0000000000
      1321       441  TIP3      OH2            16.5934028566      -18.3328112121       -0.5625114987  W2        441             0.0000000000
      1322       441  TIP3      H1             16.8971928566      -19.0186712121       -1.1571014987  W2        441             0.0000000000
      1323       441  TIP3      H2             17.3148028566      -18.2139412121        0.0552885013  W2        441             0.0000000000
      1324       442  TIP3      OH2            25.2563828566      -26.7312812121        0.2981085013  W2        442             0.0000000000
      1325       442  TIP3      H1             25.3056028566      -26.1211612121        1.0340185013  W2        442             0.0000000000
      1326       442  TIP3      H2             25.6818928566      -26.2701912121       -0.4247814987  W2        442             0.0000000000
      1327       443  TIP3      OH2            19.7341028566      -23.9385712121       -0.2350314987  W2        443             0.0000000000
      1328       443  TIP3      H1             19.8766928566      -24.8848712121       -0.2148714987  W2        443             0.0000000000
      1329       443  TIP3      H2             19.6280028566      -23.7315912121       -1.1635414987  W2        443             0.0000000000
      1330       444  TIP3      OH2            12.8889328566      -25.8369312121       -2.9625514987  W2        444             0.0000000000
      1331       444  TIP3      H1             12.9320428566      -24.9770812121       -3.3809214987  W2        444             0.0000000000
      1332       444  TIP3      H2             12.4313428566      -26.3894612121       -3.5962314987  W2        444             0.0000000000
      1333       445  TIP3      OH2            20.6112028566      -25.7063712121       -4.5617214987  W2        445             0.0000000000
      1334       445  TIP3      H1             21.2576328566      -26.0350512121       -3.9369614987  W2        445             0.0000000000
      1335       445  TIP3      H2             21.1211428566      -25.1884712121       -5.1845814987  W2        445             0.0000000000
      1336       446  TIP3      OH2             9.5090828566      -23.4403512121       -2.2004114987  W2        446             0.0000000000
      1337       446  TIP3      H1             10.1627428566      -23.9901812121       -1.7684014987  W2        446             0.0000000000
      1338       446  TIP3      H2              9.5330128566      -23.7144512121       -3.1172114987  W2        446             0.0000000000
      1339       447  TIP3      OH2            14.6655328566      -21.8902212121       -2.9852614987  W2        447             0.0000000000
      1340       447  TIP3      H1             15.2816328566      -22.4166812121       -2.4758614987  W2        447             0.0000000000
      1341       447  TIP3      H2             14.0794128566      -22.5303512121       -3.3889014987  W2        447             0.0000000000
      1342       448  TIP3      OH2            25.6478428566      -25.2533612121        2.5340885013  W2        448             0.0000000000
      1343       448  TIP3      H1             24.9593028566      -24.5952912121        2.4387485013  W2        448             0.0000000000
      1344       448  TIP3      H2             25.6633028566      -25.4505712121        3.4706285013  W2        448             0.0000000000
      1345       449  TIP3      OH2            11.6991228566      -26.9190912121        1.1115285013  W2        449             0.0000000000
      1346       449  TIP3      H1             11.4802928566      -26.3890312121        0.3451285013  W2        449             0.0000000000
      1347       449  TIP3      H2             11.0312128566      -26.6925412121        1.7586685013  W2        449             0.0000000000
      1348       450  TIP3      OH2            19.0681028566      -17.4189812121       -5.3445614987  W2        450             0.0000000000
      1349       450  TIP3      H1             18.7726128566      -17.7417512121       -6.1958714987  W2        450             0.0000000000
      1350       450  TIP3      H2             18.7438828566      -16.5193112121       -5.3033014987  W2        450             0.0000000000
      1351       451  TIP3      OH2            14.2682628566      -19.2435212121        1.3988985013  W2        451             0.0000000000
      1352       451  TIP3      H1             13.5281728566      -18.6453712121        1.5024185013  W2        451             0.0000000000
      1353       451  TIP3      H2             14.9822128566      -18.6895612121        1.0832585013  W2        451             0.0000000000
      1354       452  TIP3      OH2            22.3750428566      -26.4154412121       -2.5811314987  W2        452             0.0000000000
      1355       452  TIP3      H1             22.1598428566      -27.1811012121       -2.0485314987  W2        452             0.0000000000
      1356       452  TIP3      H2             23.0307828566      -25.9429812121       -2.0682814987  W2        452             0.0000000000
      1357       453  TIP3      OH2            11.2928528566      -25.0269112121       -0.9362514987  W2        453             0.0000000000
      1358       453  TIP3      H1             11.9064828566      -24.3941512121       -0.5630114987  W2        453             0.0000000000
      1359       453  TIP3      H2             11.8049228566      -25.4994112121       -1.5925614987  W2        453             0.0000000000
      1360       454  TIP3      OH2            12.6756928566      -17.2792212121        2.1860485013  W2        454             0.0000000000
      1361       454  TIP3      H1             12.6704528566      -16.3998712121        1.8079785013  W2        454             0.0000000000
      1362       454  TIP3      H2             11.8221028566      -17.3628112121        2.6110385013  W2        454             0.0000000000
      1363       455  TIP3      OH2             8.7967828566      -17.6084312121       -7.0320214987  W2        455             0.0000000000
      1364       455  TIP3      H1              8.5248728566      -17.3793312121       -7.9207314987  W2        455             0.0000000000
      1365       455  TIP3      H2              8.8423528566      -16.7705512121       -6.5714914987  W2        455             0.0000000000
      1366       456  TIP3      OH2            22.4217528566      -15.9868412121       -0.3191714987  W2        456             0.0000000000
      1367       456  TIP3      H1             21.4801228566      -15.9284512121       -0.1574814987  W2        456             0.0000000000
      1368       456  TIP3      H2             22.6983628566      -15.0807912121       -0.4562014987  W2        456             0.0000000000
      1369       457  TIP3      OH2            22.7224528566      -27.7003112121        1.0982185013  W2        457             0.0000000000
      1370       457  TIP3      H1             21.9863728566      -27.0896012121        1.0603485013  W2        457             0.0000000000
      1371       457  TIP3      H2             23.4058528566      -27.2854112121        0.5718585013  W2        457             0.0000000000
      1372       458  TIP3      OH2            15.7255928566      -29.6135812121       -1.4359814987  W2        458             0.0000000000
      1373       458  TIP3      H1             15.6080128566      -30.5619812121       -1.4901514987  W2        458             0.0000000000
      1374       458  TIP3      H2             14.8706028566      -29.2809712121       -1.1628714987  W2        458             0.0000000000
      1375       459  TIP3      OH2            20.6738728566      -14.2054912121       -3.6940114987  W2        459             0.0000000000
      1376       459  TIP3      H1             21.0991028566      -14.9127012121       -4.1790514987  W2        459             0.0000000000
      1377       459  TIP3      H2             20.9908728566      -13.4042212121       -4.1107914987  W2        459             0.0000000000
      1378       460  TIP3      OH2            21.8335228566      -16.3046412121       -5.1853514987  W2        460             0.0000000000
      1379       460  TIP3      H1             21.5760028566      -16.9946312121       -5.7967614987  W2        460             0.0000000000
      1380       460  TIP3      H2             21.9046028566      -16.7475212121       -4.3397614987  W2        460             0.0000000000
      1381       461  TIP3      OH2            23.5195428566      -17.7379712121        3.2919985013  W2        461             0.0000000000
      1382       461  TIP3      H1             23.6591728566      -18.3297212121        2.5526985013  W2        461             0.0000000000
      1383       461  TIP3      H2             23.6868228566      -16.8653812121        2.9358785013  W2        461             0.0000000000
      1384       462  TIP3      OH2            17.9920828566      -20.7760212121       -6.9354014987  W2        462             0.0000000000
      1385       462  TIP3      H1             17.2806328566      -20.2410512121       -7.2873514987  W2        462             0.0000000000
      1386       462  TIP3      H2             18.6830428566      -20.7208112121       -7.5955114987  W2        462             0.0000000000
      1387       463  TIP3      OH2            18.0460028566      -22.3185912121       -9.8969014987  W2        463             0.0000000000
      1388       463  TIP3      H1             18.7469928566      -22.2959012121       -9.2455014987  W2        463             0.0000000000
      1389       463  TIP3      H2             18.3482928566      -22.9466212121      -10.5529714987  W2        463             0.0000000000
      1390       464  TIP3      OH2            25.3614728566      -21.3981712121        1.3580385013  W2        464             0.0000000000
      1391       464  TIP3      H1             24.7088828566      -20.7036112121        1.4471285013  W2        464             0.0000000000
      1392       464  TIP3      H2             25.8265028566      -21.1880812121        0.5481985013  W2        464             0.0000000000
      1393       465  TIP3      OH2            21.3978528566      -20.5666912121       -5.9838114987  W2        465             0.0000000000
      1394       465  TIP3      H1             20.6659528566      -20.3383212121       -5.4107514987  W2        465             0.0000000000
      1395       465  TIP3      H2             21.8450728566      -21.2804212121       -5.5290614987  W2        465             0.0000000000
      1396       466  TIP3      OH2            21.2952028566      -22.3924312121        3.0838885013  W2        466             0.0000000000
      1397       466  TIP3      H1             21.3751128566      -21.6289912121        3.6557385013  W2        466             0.0000000000
      1398       466  TIP3      H2             20.6939728566      -22.1131912121        2.3933985013  W2        466             0.0000000000
      1399       467  TIP3      OH2            13.0432228566      -19.9360712121       -4.1013114987  W2        467             0.0000000000
      1400       467  TIP3      H1             12.7127428566      -20.3067312121       -4.9196114987  W2        467             0.0000000000
      1401       467  TIP3      H2             13.6316328566      -20.6066712121       -3.7544814987  W2        467             0.0000000000
      1402       468  TIP3      OH2            14.4099728566      -16.5080112121       -1.4200914987  W2        468             0.0000000000
      1403       468  TIP3      H1             14.3151028566      -17.0867012121       -2.1766314987  W2        468             0.0000000000
      1404       468  TIP3      H2             15.1393328566      -16.8794412121       -0.9238114987  W2        468             0.0000000000
      1405       469  TIP3      OH2            13.4097728566      -21.1675112121       -0.4678114987  W2        469             0.0000000000
      1406       469  TIP3      H1             13.9750228566      -21.0460912121       -1.2306914987  W2        469             0.0000000000
      1407       469  TIP3      H2             13.7286628566      -20.5300112121        0.1710385013  W2        469             0.0000000000
      1408       470  TIP3      OH2            19.7189928566      -15.6643212121        0.2662385013  W2        470             0.0000000000
      1409       470  TIP3      H1             19.4786528566      -15.0020112121        0.9141585013  W2        470             0.0000000000
      1410       470  TIP3      H2             19.5208128566      -16.4988012121        0.6911985013  W2        470             0.0000000000
      1411       471  TIP3      OH2            14.2898428566      -16.7682412121        4.2493785013  W2        471             0.0000000000
      1412       471  TIP3      H1             13.9785928566      -15.9859212121        4.7046985013  W2        471             0.0000000000
      1413       471  TIP3      H2             13.6398628566      -16.9213312121        3.5635785013  W2        471             0.0000000000
      1414       472  TIP3      OH2            20.2688028566      -21.4044012121       -8.2986914987  W2        472             0.0000000000
      1415       472  TIP3      H1             20.8483528566      -21.2543712121       -7.5518014987  W2        472             0.0000000000
      1416       472  TIP3      H2             20.6828028566      -20.9336612121       -9.0220514987  W2        472             0.0000000000
      1417       473  TIP3      OH2            11.2098328566      -20.5701312121        3.4779485013  W2        473             0.0000000000
      1418       473  TIP3      H1             11.2801528566      -19.9194512121        4.1764485013  W2        473             0.0000000000
      1419       473  TIP3      H2             10.3190528566      -20.4673812121        3.1430385013  W2        473             0.0000000000
      1420       474  TIP3      OH2            17.9952928566      -14.6675512121       -4.8633814987  W2        474             0.0000000000
      1421       474  TIP3      H1             18.4690528566      -14.3719212121       -4.0859614987  W2        474             0.0000000000
      1422       474  TIP3      H2             17.4322228566      -13.9293912121       -5.0964214987  W2        474             0.0000000000
      1423       475  TIP3      OH2            12.5294328566      -14.6967412121        5.0127585013  W2        475             0.0000000000
      1424       475  TIP3      H1             12.5369628566      -14.8327712121        4.0653085013  W2        475             0.0000000000
      1425       475  TIP3      H2             11.6134728566      -14.8139312121        5.2647585013  W2        475             0.0000000000
      1426       476  TIP3      OH2            23.9676428566      -29.6543612121       -8.4857214987  W2        476             0.0000000000
      1427       476  TIP3      H1             23.0677128566      -29.5154612121       -8.1906614987  W2        476             0.0000000000
      1428       476  TIP3      H2             24.2194828566      -28.8229012121       -8.8875514987  W2        476             0.0000000000
      1429       477  TIP3      OH2            12.0334928566      -20.8666412121       -6.5120314987  W2        477             0.0000000000
      1430       477  TIP3      H1             11.7416228566      -20.0984712121       -7.0029014987  W2        477             0.0000000000
      1431       477  TIP3      H2             11.3590128566      -21.5260212121       -6.6748914987  W2        477             0.0000000000
      1432       478  TIP3      OH2            25.1567828566      -15.2881212121      -10.1093314987  W2        478             0.0000000000
      1433       478  TIP3      H1             25.2301328566      -14.3491012121       -9.9388014987  W2        478             0.0000000000
      1434       478  TIP3      H2             26.0622928566      -15.5932612121      -10.1656014987  W2        478             0.0000000000
      1435       479  TIP3      OH2             8.1265028566      -18.5037212121        2.3029485013  W2        479             0.0000000000
      1436       479  TIP3      H1              7.6253428566      -18.5317812121        1.4879185013  W2        479             0.0000000000
      1437       479  TIP3      H2              8.1318728566      -19.4094012121        2.6126785013  W2        479             0.0000000000
      1438       480  TIP3      OH2             7.8767728566      -15.7233412121       -0.8130314987  W2        480             0.0000000000
      1439       480  TIP3      H1              8.8228328566      -15.8676412121       -0.8320814987  W2        480             0.0000000000
      1440       480  TIP3      H2              7.7644028566      -14.9390612121       -0.2759114987  W2        480             0.0000000000
      1441       481  TIP3      OH2            26.0746228566      -15.0573712121        4.8693385013  W2        481             0.0000000000
      1442       481  TIP3      H1             26.0253028566      -16.0125612121        4.8320985013  W2        481             0.0000000000
      1443       481  TIP3      H2             25.2478528566      -14.7898412121        5.2707185013  W2        481             0.0000000000
      1444       482  TIP3      OH2            17.0530228566      -15.4834512121        3.7454785013  W2        482             0.0000000000
      1445       482  TIP3      H1             17.1404828566      -14.6569912121        4.2203885013  W2        482             0.0000000000
      1446       482  TIP3      H2             16.1895328566      -15.8130712121        3.9944085013  W2        482             0.0000000000
      1447       483  TIP3      OH2            17.4676028566      -11.7110812121       -6.4484614987  W2        483             0.0000000000
      1448       483  TIP3      H1             17.3922028566      -11.8323612121       -7.3949414987  W2        483             0.0000000000
      1449       483  TIP3      H2             17.5004728566      -10.7618112121       -6.3300014987  W2        483             0.0000000000
      1450       484  TIP3      OH2            11.1209828566      -12.9223812121       -4.6675614987  W2        484             0.0000000000
      1451       484  TIP3      H1             11.2730228566      -13.2703412121       -3.7889114987  W2        484             0.0000000000
      1452       484  TIP3      H2             10.2700228566      -13.2786512121       -4.9228414987  W2        484             0.0000000000
      1453       485  TIP3      OH2            20.5692028566      -12.5570612121       -9.4462214987  W2        485             0.0000000000
      1454       485  TIP3      H1             20.9440428566      -13.3014512121       -9.9169614987  W2        485             0.0000000000
      1455       485  TIP3      H2             20.5735728566      -12.8270012121       -8.5278914987  W2        485             0.0000000000
      1456       486  TIP3      OH2            20.2380128566      -12.6313512121       -6.6970014987  W2        486             0.0000000000
      1457       486  TIP3      H1             19.3029928566      -12.5311612121       -6.5183014987  W2        486             0.0000000000
      1458       486  TIP3      H2             20.5182028566      -13.3407512121       -6.1186814987  W2        486             0.0000000000
      1459       487  TIP3      OH2            23.2266028566      -23.5641212121        5.3495585013  W2        487             0.0000000000
      1460       487  TIP3      H1             22.8192828566      -23.0835612121        4.6288885013  W2        487             0.0000000000
      1461       487  TIP3      H2             23.2671728566      -24.4695212121        5.0416385013  W2        487             0.0000000000
      1462       488  TIP3      OH2            10.3755528566      -17.1801812121        3.3462285013  W2        488             0.0000000000
      1463       488  TIP3      H1             10.5916828566      -17.5416212121        4.2058085013  W2        488             0.0000000000
      1464       488  TIP3      H2              9.5200228566      -17.5548012121        3.1365785013  W2        488             0.0000000000
      1465       489  TIP3      OH2            12.9943528566      -28.7101312121       -0.6583514987  W2        489             0.0000000000
      1466       489  TIP3      H1             12.1327228566      -28.7973112121       -1.0660614987  W2        489             0.0000000000
      1467       489  TIP3      H2             12.9719228566      -27.8541212121       -0.2305914987  W2        489             0.0000000000
      1468       490  TIP3      OH2            17.6571328566      -28.9880912121        2.7163485013  W2        490             0.0000000000
      1469       490  TIP3      H1             18.0774428566      -29.4033812121        3.4694085013  W2        490             0.0000000000
      1470       490  TIP3      H2             16.7240928566      -29.1667612121        2.8335485013  W2        490             0.0000000000
      1471       491  TIP3      OH2            20.9836228566      -25.2325712121        3.5697985013  W2        491             0.0000000000
      1472       491  TIP3      H1             20.4695728566      -25.3583512121        4.3673985013  W2        491             0.0000000000
      1473       491  TIP3      H2             20.8280928566      -24.3202612121        3.3254185013  W2        491             0.0000000000
      1474       492  TIP3      OH2            21.7461128566      -20.3715712121      -10.6689014987  W2        492             0.0000000000
      1475       492  TIP3      H1             21.7881928566      -20.5941812121      -11.5989014987  W2        492             0.0000000000
      1476       492  TIP3      H2             22.5953228566      -19.9728612121      -10.4789114987  W2        492             0.0000000000
      1477       493  TIP3      OH2            17.3188628566      -26.4957512121       -9.9985714987  W2        493             0.0000000000
      1478       493  TIP3      H1             17.0653428566      -26.4765912121       -9.0757614987  W2        493             0.0000000000
      1479       493  TIP3      H2             17.0620728566      -27.3672112121      -10.2999514987  W2        493             0.0000000000
      1480       494  TIP3      OH2            13.0853628566      -23.7446812121        0.4366685013  W2        494             0.0000000000
      1481       494  TIP3      H1             12.4435728566      -23.7849512121        1.1456785013  W2        494             0.0000000000
      1482       494  TIP3      H2             13.1225628566      -22.8182112121        0.1989685013  W2        494             0.0000000000
      1483       495  TIP3      OH2            13.0822728566      -23.5236712121       -4.6513314987  W2        495             0.0000000000
      1484       495  TIP3      H1             12.1895628566      -23.8640612121       -4.7099514987  W2        495             0.0000000000
      1485       495  TIP3      H2             13.5329328566      -23.9005812121       -5.4070114987  W2        495             0.0000000000
      1486       496  TIP3      OH2            18.6178228566      -23.1076412121       -5.8342514987  W2        496             0.0000000000
      1487       496  TIP3      H1             18.2088528566      -22.2927812121       -6.1257714987  W2        496             0.0000000000
      1488       496  TIP3      H2             19.3384428566      -23.2476312121       -6.4485414987  W2        496             0.0000000000
      1489       497  TIP3      OH2            17.7199828566      -22.9320012121        5.6538185013  W2        497             0.0000000000
      1490       497  TIP3      H1             17.1573628566      -23.6368412121        5.9745985013  W2        497             0.0000000000
      1491       497  TIP3      H2             18.5463228566      -23.0528112121        6.1215785013  W2        497             0.0000000000
      1492       498  TIP3      OH2            19.6225928566      -23.6616012121       -3.0202814987  W2        498             0.0000000000
      1493       498  TIP3      H1             19.4270428566      -23.0559212121       -3.7352214987  W2        498             0.0000000000
      1494       498  TIP3      H2             19.8038528566      -24.4950812121       -3.4546514987  W2        498             0.0000000000
      1495       499  TIP3      OH2            10.8354128566      -23.4243312121        2.3038685013  W2        499             0.0000000000
      1496       499  TIP3      H1             10.7973528566      -23.0241712121        3.1725785013  W2        499             0.0000000000
      1497       499  TIP3      H2             10.3445228566      -24.2410912121        2.3941585013  W2        499             0.0000000000
      1498       500  TIP3      OH2            14.2011528566      -26.0501012121      -10.8975314987  W2        500             0.0000000000
      1499       500  TIP3      H1             13.7702228566      -26.4950912121      -10.1677914987  W2        500             0.0000000000
      1500       500  TIP3      H2             13.4830228566      -25.6784712121      -11.4097814987  W2        500             0.0000000000
      1501       501  TIP3      OH2             7.4434928566      -26.3081512121       -3.8456614987  W2        501             0.0000000000
      1502       501  TIP3      H1              8.0742628566      -26.3369412121       -3.1262714987  W2        501             0.0000000000
      1503       501  TIP3      H2              7.8929228566      -26.7332812121       -4.5760714987  W2        501             0.0000000000
      1504       502  TIP3      OH2             8.7177028566      -25.5619512121       -8.4216214987  W2        502             0.0000000000
      1505       502  TIP3      H1              9.1918728566      -24.9709612121       -9.0065314987  W2        502             0.0000000000
      1506       502  TIP3      H2              8.0003428566      -25.0316612121       -8.0746114987  W2        502             0.0000000000
      1507       503  TIP3      OH2            18.8865128566      -22.0234712121        1.6509585013  W2        503             0.0000000000
      1508       503  TIP3      H1             19.2099928566      -22.6545012121        1.0080085013  W2        503             0.0000000000
      1509       503  TIP3      H2             18.4464428566      -22.5582512121        2.3116985013  W2        503             0.0000000000
      1510       504  TIP3      OH2            15.6638028566      -26.0959212121       -3.5649214987  W2        504             0.0000000000
      1511       504  TIP3      H1             14.7529128566      -26.0392412121       -3.2763214987  W2        504             0.0000000000
      1512       504  TIP3      H2             16.1690928566      -26.1563712121       -2.7542014987  W2        504             0.0000000000
      1513       505  TIP3      OH2            10.4921428566      -24.4672912121       -4.7381614987  W2        505             0.0000000000
      1514       505  TIP3      H1              9.6029428566      -24.3677412121       -5.0782014987  W2        505             0.0000000000
      1515       505  TIP3      H2             10.7886328566      -25.3089912121       -5.0843714987  W2        505             0.0000000000
      1516       506  TIP3      OH2            14.1453228566      -24.4670312121       -7.0817014987  W2        506             0.0000000000
      1517       506  TIP3      H1             15.0768728566      -24.3380312121       -6.9033914987  W2        506             0.0000000000
      1518       506  TIP3      H2             13.9303528566      -23.7976012121       -7.7312314987  W2        506             0.0000000000
      1519       507  TIP3      OH2            20.0689928566      -26.8612912121       -0.3007414987  W2        507             0.0000000000
      1520       507  TIP3      H1             19.3921528566      -26.7299812121        0.3632285013  W2        507             0.0000000000
      1521       507  TIP3      H2             19.5834828566      -27.0163412121       -1.1109714987  W2        507             0.0000000000
      1522       508  TIP3      OH2            12.8193428566      -23.2728112121       -9.5150914987  W2        508             0.0000000000
      1523       508  TIP3      H1             12.2768528566      -23.6524312121      -10.2063314987  W2        508             0.0000000000
      1524       508  TIP3      H2             13.6528328566      -23.0783412121       -9.9436814987  W2        508             0.0000000000
      1525       509  TIP3      OH2            23.3565028566      -11.1897512121        5.9760185013  W2        509             0.0000000000
      1526       509  TIP3      H1             23.5563728566      -10.7655612121        5.1415485013  W2        509             0.0000000000
      1527       509  TIP3      H2             24.0118728566      -10.8459312121        6.5830585013  W2        509             0.0000000000
      1528       510  TIP3      OH2            10.9544828566      -18.7156212121        5.5840685013  W2        510             0.0000000000
      1529       510  TIP3      H1             11.6867228566      -18.4610312121        6.1455185013  W2        510             0.0000000000
      1530       510  TIP3      H2             10.1743528566      -18.5110812121        6.0996085013  W2        510             0.0000000000
      1531       511  TIP3      OH2            16.9837728566      -23.3086212121       -1.6779614987  W2        511             0.0000000000
      1532       511  TIP3      H1             17.5481128566      -23.8549612121       -2.2250014987  W2        511             0.0000000000
      1533       511  TIP3      H2             16.8361128566      -23.8304312121       -0.8892014987  W2        511             0.0000000000
      1534       512  TIP3      OH2            11.9857428566      -27.1720112121       -5.2594814987  W2        512             0.0000000000
      1535       512  TIP3      H1             11.6686928566      -28.0744812121       -5.2949414987  W2        512             0.0000000000
      1536       512  TIP3      H2             12.7671528566      -27.1702712121       -5.8123214987  W2        512             0.0000000000
      1537       513  TIP3      OH2            15.6103628566      -24.9200112121        0.7360785013  W2        513             0.0000000000
      1538       513  TIP3      H1             14.7748928566      -24.4660612121        0.8463185013  W2        513             0.0000000000
      1539       513  TIP3      H2             16.1344228566      -24.6441612121        1.4880685013  W2        513             0.0000000000
      1540       514  TIP3      OH2            16.1546228566      -18.7072412121       -7.5792814987  W2        514             0.0000000000
      1541       514  TIP3      H1             15.4097228566      -19.2147112121       -7.9014914987  W2        514             0.0000000000
      1542       514  TIP3      H2             16.0203428566      -18.6584412121       -6.6328014987  W2        514             0.0000000000
      1543       515  TIP3      OH2            23.3045128566      -19.5744212121        1.2074785013  W2        515             0.0000000000
      1544       515  TIP3      H1             23.9463928566      -19.1177912121        0.6636985013  W2        515             0.0000000000
      1545       515  TIP3      H2             22.4742028566      -19.4611812121        0.7448885013  W2        515             0.0000000000
      1546       516  TIP3      OH2            20.0523028566      -25.8932512121       -9.3800214987  W2        516             0.0000000000
      1547       516  TIP3      H1             19.1137228566      -25.7816912121       -9.5311414987  W2        516             0.0000000000
      1548       516  TIP3      H2             20.3495128566      -25.0365612121       -9.0734514987  W2        516             0.0000000000
      1549       517  TIP3      OH2            17.6738328566      -18.5229112121        3.6576285013  W2        517             0.0000000000
      1550       517  TIP3      H1             17.3284428566      -18.9046712121        4.4645885013  W2        517             0.0000000000
      1551       517  TIP3      H2             17.4738428566      -17.5895512121        3.7289185013  W2        517             0.0000000000
      1552       518  TIP3      OH2            20.7706528566      -24.0259812121       -7.7192814987  W2        518             0.0000000000
      1553       518  TIP3      H1             21.6625528566      -24.1634812121       -7.4001614987  W2        518             0.0000000000
      1554       518  TIP3      H2             20.8270128566      -23.2353712121       -8.2559314987  W2        518             0.0000000000
      1555       519  TIP3      OH2            11.2794528566      -19.4122412121       -1.8094914987  W2        519             0.0000000000
      1556       519  TIP3      H1             12.0241728566      -19.4146712121       -2.4108414987  W2        519             0.0000000000
      1557       519  TIP3      H2             11.3571128566      -20.2358612121       -1.3279814987  W2        519             0.0000000000
      1558       520  TIP3      OH2            18.2800328566      -17.2488112121       -8.5538214987  W2        520             0.0000000000
      1559       520  TIP3      H1             17.9848728566      -16.4220212121       -8.1723414987  W2        520             0.0000000000
      1560       520  TIP3      H2             17.5770328566      -17.8681212121       -8.3576814987  W2        520             0.0000000000
      1561       521  TIP3      OH2             8.2874228566      -20.9515512121        3.5053585013  W2        521             0.0000000000
      1562       521  TIP3      H1              8.5102828566      -21.3695912121        4.3371085013  W2        521             0.0000000000
      1563       521  TIP3      H2              7.6854328566      -21.5640512121        3.0826385013  W2        521             0.0000000000
      1564       522  TIP3      OH2            15.3039128566      -21.4345612121        5.7183285013  W2        522             0.0000000000
      1565       522  TIP3      H1             15.0079928566      -21.6002612121        4.8232385013  W2        522             0.0000000000
      1566       522  TIP3      H2             16.2354328566      -21.6545312121        5.7077185013  W2        522             0.0000000000
      1567       523  TIP3      OH2            19.9241928566      -16.0613612121        3.6081285013  W2        523             0.0000000000
      1568       523  TIP3      H1             19.0236228566      -15.8781012121        3.3405185013  W2        523             0.0000000000
      1569       523  TIP3      H2             19.9583028566      -15.8024312121        4.5290085013  W2        523             0.0000000000
      1570       524  TIP3      OH2            25.6555228566      -23.8165712121       -8.0246114987  W2        524             0.0000000000
      1571       524  TIP3      H1             25.1011528566      -24.2127712121       -8.6968614987  W2        524             0.0000000000
      1572       524  TIP3      H2             25.7558828566      -22.9060512121       -8.3022814987  W2        524             0.0000000000
      1573       525  TIP3      OH2            25.6187228566      -18.0164012121        4.8125385013  W2        525             0.0000000000
      1574       525  TIP3      H1             24.7675728566      -17.7780212121        4.4451785013  W2        525             0.0000000000
      1575       525  TIP3      H2             26.2090628566      -18.0330812121        4.0592485013  W2        525             0.0000000000
      1576       526  TIP3      OH2            23.9506928566      -15.0305312121       -7.5594014987  W2        526             0.0000000000
      1577       526  TIP3      H1             23.5778028566      -15.8561512121       -7.2503414987  W2        526             0.0000000000
      1578       526  TIP3      H2             24.2280428566      -15.2135912121       -8.4570614987  W2        526             0.0000000000
      1579       527  TIP3      OH2            21.1110828566      -20.2225812121       -0.5382114987  W2        527             0.0000000000
      1580       527  TIP3      H1             20.1827728566      -20.4543912121       -0.5652814987  W2        527             0.0000000000
      1581       527  TIP3      H2             21.5621928566      -20.9996012121       -0.8683314987  W2        527             0.0000000000
      1582       528  TIP3      OH2            13.6543928566      -15.8944212121       -4.4053414987  W2        528             0.0000000000
      1583       528  TIP3      H1             14.1816128566      -15.1209812121       -4.6054614987  W2        528             0.0000000000
      1584       528  TIP3      H2             12.7742428566      -15.6695012121       -4.7069414987  W2        528             0.0000000000
      1585       529  TIP3      OH2             9.4091628566      -21.0320112121       -9.8181014987  W2        529             0.0000000000
      1586       529  TIP3      H1             10.0251528566      -20.4052912121       -9.4386214987  W2        529             0.0000000000
      1587       529  TIP3      H2              8.5474228566      -20.7160312121       -9.5464514987  W2        529             0.0000000000
      1588       530  TIP3      OH2            15.0816228566      -18.2314312121       -4.8289114987  W2        530             0.0000000000
      1589       530  TIP3      H1             14.8406228566      -17.3059912121       -4.7873814987  W2        530             0.0000000000
      1590       530  TIP3      H2             14.3409828566      -18.6903012121       -4.4325214987  W2        530             0.0000000000
      1591       531  TIP3      OH2            15.5962828566      -14.0820712121        1.4861985013  W2        531             0.0000000000
      1592       531  TIP3      H1             15.9587528566      -13.2275112121        1.2526385013  W2        531             0.0000000000
      1593       531  TIP3      H2             16.1278028566      -14.3739112121        2.2268285013  W2        531             0.0000000000
      1594       532  TIP3      OH2            13.7647028566      -13.2096712121       -5.2836914987  W2        532             0.0000000000
      1595       532  TIP3      H1             12.8147528566      -13.1039312121       -5.2323614987  W2        532             0.0000000000
      1596       532  TIP3      H2             14.1165128566      -12.3889312121       -4.9389414987  W2        532             0.0000000000
      1597       533  TIP3      OH2            19.1403628566      -17.9830012121        1.1867585013  W2        533             0.0000000000
      1598       533  TIP3      H1             18.7144928566      -18.2108312121        2.0131585013  W2        533             0.0000000000
      1599       533  TIP3      H2             19.7209428566      -18.7218212121        1.0042885013  W2        533             0.0000000000
      1600       534  TIP3      OH2            21.3432528566      -17.0539512121       -9.7393414987  W2        534             0.0000000000
      1601       534  TIP3      H1             21.6965628566      -17.4339712121       -8.9349914987  W2        534             0.0000000000
      1602       534  TIP3      H2             20.3946028566      -17.1474712121       -9.6524114987  W2        534             0.0000000000
      1603       535  TIP3      OH2            21.7987828566      -13.4310512121        3.6562385013  W2        535             0.0000000000
      1604       535  TIP3      H1             21.1971028566      -13.9867612121        3.1608685013  W2        535             0.0000000000
      1605       535  TIP3      H2             22.0801528566      -12.7640712121        3.0299785013  W2        535             0.0000000000
      1606       536  TIP3      OH2            25.8466928566      -12.5747012121       -9.5383214987  W2        536             0.0000000000
      1607       536  TIP3      H1             26.5904828566      -11.9886512121       -9.6781614987  W2        536             0.0000000000
      1608       536  TIP3      H2             25.1525028566      -12.0061212121       -9.2050814987  W2        536             0.0000000000
      1609       537  TIP3      OH2             9.9213728566      -26.1982812121        3.0634985013  W2        537             0.0000000000
      1610       537  TIP3      H1              9.0286028566      -25.8597412121        2.9958985013  W2        537             0.0000000000
      1611       537  TIP3      H2              9.8226528566      -27.0536712121        3.4815785013  W2        537             0.0000000000
      1612       538  TIP3      OH2            22.2091828566      -18.3817512121       -7.5125514987  W2        538             0.0000000000
      1613       538  TIP3      H1             21.9319428566      -19.1098212121       -6.9564414987  W2        538             0.0000000000
      1614       538  TIP3      H2             23.1364828566      -18.2625512121       -7.3072914987  W2        538             0.0000000000
      1615       539  TIP3      OH2             9.5725728566      -14.3938412121        1.4984385013  W2        539             0.0000000000
      1616       539  TIP3      H1              9.7896028566      -15.3256012121        1.4674085013  W2        539             0.0000000000
      1617       539  TIP3      H2              9.8189228566      -14.1193412121        2.3817185013  W2        539             0.0000000000
      1618       540  TIP3      OH2            15.4340328566      -15.9423412121      -11.2923414987  W2        540             0.0000000000
      1619       540  TIP3      H1             15.6730128566      -16.6905312121      -11.8394514987  W2        540             0.0000000000
      1620       540  TIP3      H2             15.1651628566      -16.3301712121      -10.4595614987  W2        540             0.0000000000
      1621       541  TIP3      OH2            14.3710928566      -16.3719612121       -8.8360814987  W2        541             0.0000000000
      1622       541  TIP3      H1             14.5178928566      -16.8919812121       -8.0459914987  W2        541             0.0000000000
      1623       541  TIP3      H2             14.3682628566      -15.4652012121       -8.5294914987  W2        541             0.0000000000
      1624       542  TIP3      OH2            10.8242028566      -19.1196312121       -8.3255414987  W2        542             0.0000000000
      1625       542  TIP3      H1             10.1381328566      -18.7673812121       -7.7585714987  W2        542             0.0000000000
      1626       542  TIP3      H2             11.3469928566      -18.3566712121       -8.5721114987  W2        542             0.0000000000
      1627       543  TIP3      OH2            18.6557128566      -26.4572512121        1.9533585013  W2        543             0.0000000000
      1628       543  TIP3      H1             19.3545028566      -26.3833812121        2.6033285013  W2        543             0.0000000000
      1629       543  TIP3      H2             18.2748528566      -27.3217512121        2.1076485013  W2        543             0.0000000000
      1630       544  TIP3      OH2            19.4402028566      -26.8050812121       -6.9494114987  W2        544             0.0000000000
      1631       544  TIP3      H1             19.6600328566      -26.3335412121       -7.7528714987  W2        544             0.0000000000
      1632       544  TIP3      H2             19.9986028566      -26.4108212121       -6.2793514987  W2        544             0.0000000000
      1633       545  TIP3      OH2            17.1088128566      -14.6746012121       -8.0866614987  W2        545             0.0000000000
      1634       545  TIP3      H1             16.2924228566      -14.1776312121       -8.0342314987  W2        545             0.0000000000
      1635       545  TIP3      H2             17.6384428566      -14.1992512121       -8.7267814987  W2        545             0.0000000000
      1636       546  TIP3      OH2            16.6401928566      -25.0772012121       -6.1145714987  W2        546             0.0000000000
      1637       546  TIP3      H1             17.4524528566      -24.5728812121       -6.0684014987  W2        546             0.0000000000
      1638       546  TIP3      H2             16.3954928566      -25.2222312121       -5.2006114987  W2        546             0.0000000000
      1639       547  TIP3      OH2            17.1758328566      -24.0909312121        3.0700885013  W2        547             0.0000000000
      1640       547  TIP3      H1             17.2948628566      -23.5173912121        3.8271285013  W2        547             0.0000000000
      1641       547  TIP3      H2             17.8312928566      -24.7789912121        3.1848685013  W2        547             0.0000000000
      1642       548  TIP3      OH2            17.5238628566      -27.9959012121       -5.1764614987  W2        548             0.0000000000
      1643       548  TIP3      H1             17.1772128566      -27.3788412121       -4.5320314987  W2        548             0.0000000000
      1644       548  TIP3      H2             18.1825528566      -27.4953312121       -5.6579114987  W2        548             0.0000000000
      1645       549  TIP3      OH2            14.4471228566      -13.6308812121       -8.1049714987  W2        549             0.0000000000
      1646       549  TIP3      H1             14.6079928566      -12.8311312121       -8.6057114987  W2        549             0.0000000000
      1647       549  TIP3      H2             14.2499028566      -13.3242812121       -7.2199114987  W2        549             0.0000000000
      1648       550  TIP3      OH2            13.1815628566      -26.9329612121       -8.4892114987  W2        550             0.0000000000
      1649       550  TIP3      H1             13.0980428566      -26.0446512121       -8.1425714987  W2        550             0.0000000000
      1650       550  TIP3      H2             14.0715928566      -27.1982912121       -8.2575314987  W2        550             0.0000000000
      1651       551  TIP3      OH2            23.3804128566      -26.1839012121        3.9050585013  W2        551             0.0000000000
      1652       551  TIP3      H1             22.4639928566      -25.9217312121        3.8174285013  W2        551             0.0000000000
      1653       551  TIP3      H2             23.7159128566      -26.1870012121        3.0085885013  W2        551             0.0000000000
      1654       552  TIP3      OH2            21.9825128566      -22.4338012121       -1.9992114987  W2        552             0.0000000000
      1655       552  TIP3      H1             21.1849528566      -22.8487812121       -2.3277114987  W2        552             0.0000000000
      1656       552  TIP3      H2             22.4276228566      -23.1244312121       -1.5081614987  W2        552             0.0000000000
      1657       553  TIP3      OH2            11.4400928566      -16.5057412121       -9.4287614987  W2        553             0.0000000000
      1658       553  TIP3      H1             12.0322428566      -15.8062612121       -9.1525214987  W2        553             0.0000000000
      1659       553  TIP3      H2             11.8993928566      -16.9387912121      -10.1483014987  W2        553             0.0000000000
      1660       554  TIP3      OH2             9.7560128566      -23.8414412121      -10.3128214987  W2        554             0.0000000000
      1661       554  TIP3      H1              9.7112728566      -22.9021312121      -10.1341214987  W2        554             0.0000000000
      1662       554  TIP3      H2              8.8683328566      -24.0769512121      -10.5826114987  W2        554             0.0000000000
      1663       555  TIP3      OH2            23.0689728566      -13.1775512121       -0.3768614987  W2        555             0.0000000000
      1664       555  TIP3      H1             22.9134028566      -12.4991112121       -1.0339314987  W2        555             0.0000000000
      1665       555  TIP3      H2             24.0016128566      -13.1056212121       -0.1738014987  W2        555             0.0000000000
      1666       556  TIP3      OH2            10.5642128566      -29.0597812121       -1.6397214987  W2        556             0.0000000000
      1667       556  TIP3      H1             10.3351928566      -29.0005312121       -2.5672214987  W2        556             0.0000000000
      1668       556  TIP3      H2             10.1215528566      -29.8512312121       -1.3333114987  W2        556             0.0000000000
      1669       557  TIP3      OH2             9.4945428566      -15.1190712121       -5.4791414987  W2        557             0.0000000000
      1670       557  TIP3      H1              8.6624028566      -14.6468012121       -5.4520014987  W2        557             0.0000000000
      1671       557  TIP3      H2             10.0403728566      -14.6093112121       -6.0778314987  W2        557             0.0000000000
      1672       558  TIP3      OH2             8.7829128566      -12.5067012121        5.8506585013  W2        558             0.0000000000
      1673       558  TIP3      H1              9.3231328566      -12.7233012121        6.6105785013  W2        558             0.0000000000
      1674       558  TIP3      H2              8.3017128566      -13.3121012121        5.6609085013  W2        558             0.0000000000
      1675       559  TIP3      OH2            13.3802528566      -13.5872612121        7.4710785013  W2        559             0.0000000000
      1676       559  TIP3      H1             14.1479728566      -14.0461812121        7.8119985013  W2        559             0.0000000000
      1677       559  TIP3      H2             13.3588728566      -13.8132812121        6.5411985013  W2        559             0.0000000000
      1678       560  TIP3      OH2            17.4722128566      -14.0792012121      -11.1537414987  W2        560             0.0000000000
      1679       560  TIP3      H1             16.8283128566      -14.7103412121      -10.8323714987  W2        560             0.0000000000
      1680       560  TIP3      H2             18.2340428566      -14.6104012121      -11.3853914987  W2        560             0.0000000000
      1681       561  TIP3      OH2            19.9571228566      -15.2071512121        6.2002285013  W2        561             0.0000000000
      1682       561  TIP3      H1             19.6060728566      -16.0638512121        6.4432685013  W2        561             0.0000000000
      1683       561  TIP3      H2             20.6834428566      -15.0644812121        6.8071285013  W2        561             0.0000000000
      1684       562  TIP3      OH2            22.0765028566      -14.2622112121      -10.9199414987  W2        562             0.0000000000
      1685       562  TIP3      H1             22.3595428566      -15.0566912121      -10.4672514987  W2        562             0.0000000000
      1686       562  TIP3      H2             22.8162928566      -14.0291112121      -11.4808314987  W2        562             0.0000000000
      1687       563  TIP3      OH2             8.6898628566      -18.6962912121        6.8050885013  W2        563             0.0000000000
      1688       563  TIP3      H1              8.8339128566      -19.5982212121        6.5187585013  W2        563             0.0000000000
      1689       563  TIP3      H2              7.9176028566      -18.4100812121        6.3173185013  W2        563             0.0000000000
      1690       564  TIP3      OH2            13.0312328566      -18.3527212121      -11.0624514987  W2        564             0.0000000000
      1691       564  TIP3      H1             13.0956428566      -19.1467612121      -10.5318114987  W2        564             0.0000000000
      1692       564  TIP3      H2             13.6841528566      -18.4714412121      -11.7522514987  W2        564             0.0000000000
      1693       565  TIP3      OH2            15.3454728566      -18.7264812121        6.2377285013  W2        565             0.0000000000
      1694       565  TIP3      H1             15.0168528566      -18.4556712121        5.3804685013  W2        565             0.0000000000
      1695       565  TIP3      H2             15.4972928566      -19.6675012121        6.1502285013  W2        565             0.0000000000
      1696       566  TIP3      OH2            18.3835728566      -17.3055512121      -11.3266514987  W2        566             0.0000000000
      1697       566  TIP3      H1             18.1149828566      -17.1253412121      -10.4257614987  W2        566             0.0000000000
      1698       566  TIP3      H2             18.1771328566      -18.2309312121      -11.4580714987  W2        566             0.0000000000
      1699       567  TIP3      OH2            21.0799928566      -18.8107512121        3.6209585013  W2        567             0.0000000000
      1700       567  TIP3      H1             21.8254728566      -18.2223812121        3.5013585013  W2        567             0.0000000000
      1701       567  TIP3      H2             20.3226728566      -18.2287812121        3.6842685013  W2        567             0.0000000000
      1702       568  TIP3      OH2             9.5225128566      -21.4959612121        6.2250185013  W2        568             0.0000000000
      1703       568  TIP3      H1              9.9306328566      -22.3533012121        6.1040785013  W2        568             0.0000000000
      1704       568  TIP3      H2              9.2622728566      -21.4818312121        7.1460485013  W2        568             0.0000000000
      1705       569  TIP3      OH2            14.1806128566      -20.3801012121       -8.7566514987  W2        569             0.0000000000
      1706       569  TIP3      H1             13.7208128566      -20.8642712121       -8.0708014987  W2        569             0.0000000000
      1707       569  TIP3      H2             14.4354828566      -21.0485612121       -9.3926014987  W2        569             0.0000000000
      1708       570  TIP3      OH2            13.4695428566      -22.4873912121        3.5993085013  W2        570             0.0000000000
      1709       570  TIP3      H1             12.8511528566      -21.8127312121        3.8797785013  W2        570             0.0000000000
      1710       570  TIP3      H2             13.8136628566      -22.1660012121        2.7659285013  W2        570             0.0000000000
      1711       571  TIP3      OH2            15.2516528566      -22.1369212121      -10.4943314987  W2        571             0.0000000000
      1712       571  TIP3      H1             15.0711528566      -22.2918012121      -11.4215014987  W2        571             0.0000000000
      1713       571  TIP3      H2             16.2017028566      -22.0290512121      -10.4495414987  W2        571             0.0000000000
      1714       572  TIP3      OH2            18.4893628566      -20.0158612121        6.8767885013  W2        572             0.0000000000
      1715       572  TIP3      H1             19.4424828566      -19.9319512121        6.8493885013  W2        572             0.0000000000
      1716       572  TIP3      H2             18.3288228566      -20.7276812121        7.4962785013  W2        572             0.0000000000
      1717       573  TIP3      OH2            24.6414828566      -19.7825012121      -11.0485214987  W2        573             0.0000000000
      1718       573  TIP3      H1             24.3679628566      -20.2069512121      -11.8616914987  W2        573             0.0000000000
      1719       573  TIP3      H2             24.6808928566      -18.8510512121      -11.2654814987  W2        573             0.0000000000
      1720       574  TIP3      OH2            13.8089128566      -25.1323112121        4.6816185013  W2        574             0.0000000000
      1721       574  TIP3      H1             13.9590028566      -25.8611812121        4.0795885013  W2        574             0.0000000000
      1722       574  TIP3      H2             13.8111528566      -24.3551412121        4.1228385013  W2        574             0.0000000000
      1723       575  TIP3      OH2            14.2214828566      -26.7627312121        2.1743585013  W2        575             0.0000000000
      1724       575  TIP3      H1             14.7572328566      -26.3110612121        1.5222885013  W2        575             0.0000000000
      1725       575  TIP3      H2             13.3694428566      -26.8707512121        1.7517685013  W2        575             0.0000000000
      1726       576  TIP3      OH2            15.8033228566      -21.3231112121        2.4138785013  W2        576             0.0000000000
      1727       576  TIP3      H1             16.5538028566      -21.4793612121        1.8406585013  W2        576             0.0000000000
      1728       576  TIP3      H2             15.4641528566      -20.4714512121        2.1384285013  W2        576             0.0000000000
      1729       577  TIP3      OH2            20.2189428566      -23.5079312121        7.4424085013  W2        577             0.0000000000
      1730       577  TIP3      H1             20.4110728566      -24.4389912121        7.3308585013  W2        577             0.0000000000
      1731       577  TIP3      H2             21.0765728566      -23.0829812121        7.4319485013  W2        577             0.0000000000
      1732       578  TIP3      OH2            21.5356628566      -20.7194112121        5.5196785013  W2        578             0.0000000000
      1733       578  TIP3      H1             21.2541628566      -20.0099512121        4.9420585013  W2        578             0.0000000000
      1734       578  TIP3      H2             22.4780928566      -20.7921112121        5.3687985013  W2        578             0.0000000000
      1735       579  TIP3      OH2            12.2875428566      -23.9339612121        6.5931785013  W2        579             0.0000000000
      1736       579  TIP3      H1             11.5204428566      -24.4664812121        6.3829385013  W2        579             0.0000000000
      1737       579  TIP3      H2             12.9664428566      -24.2439212121        5.9938085013  W2        579             0.0000000000
      1738       580  TIP3      OH2            15.0270328566      -29.3061612121        2.6057185013  W2        580             0.0000000000
      1739       580  TIP3      H1             14.9289928566      -28.3598412121        2.5003385013  W2        580             0.0000000000
      1740       580  TIP3      H2             14.2846528566      -29.6787812121        2.1300685013  W2        580             0.0000000000
      1741       581  TIP3      OH2            16.2910828566      -24.9846212121        6.1695585013  W2        581             0.0000000000
      1742       581  TIP3      H1             16.0556228566      -25.2039512121        7.0710485013  W2        581             0.0000000000
      1743       581  TIP3      H2             15.5077728566      -25.1915012121        5.6598085013  W2        581             0.0000000000
      1744       582  TIP3      OH2            19.0067428566      -25.8572712121        5.2449085013  W2        582             0.0000000000
      1745       582  TIP3      H1             18.0592828566      -25.8253012121        5.3772385013  W2        582             0.0000000000
      1746       582  TIP3      H2             19.3194128566      -26.4825612121        5.8987285013  W2        582             0.0000000000
      1747       583  TIP3      OH2            20.6408928566      -27.2231612121        7.2500985013  W2        583             0.0000000000
      1748       583  TIP3      H1             20.5440728566      -28.1754312121        7.2442885013  W2        583             0.0000000000
      1749       583  TIP3      H2             20.3192028566      -26.9544812121        8.1106485013  W2        583             0.0000000000
      1750       584  TIP3      OH2            10.4678228566      -26.0135812121        6.2976485013  W2        584             0.0000000000
      1751       584  TIP3      H1             10.6795628566      -26.7199712121        5.6873985013  W2        584             0.0000000000
      1752       584  TIP3      H2             10.3565728566      -26.4509812121        7.1417685013  W2        584             0.0000000000
      1753       585  TIP3      OH2            15.2488428566      -30.0124212121        5.2769985013  W2        585             0.0000000000
      1754       585  TIP3      H1             15.9606828566      -30.6522012121        5.2629085013  W2        585             0.0000000000
      1755       585  TIP3      H2             15.1478828566      -29.7455912121        4.3633085013  W2        585             0.0000000000
      1756       586  TIP3      OH2            15.6025928566      -28.3295812121        7.3306285013  W2        586             0.0000000000
      1757       586  TIP3      H1             15.4708128566      -28.8052012121        6.5104785013  W2        586             0.0000000000
      1758       586  TIP3      H2             15.0033328566      -27.5852212121        7.2753385013  W2        586             0.0000000000
      1759       587  TIP3      OH2            15.1488228566      -11.4465512121       -9.4929714987  W2        587             0.0000000000
      1760       587  TIP3      H1             16.0818928566      -11.2886812121       -9.3491314987  W2        587             0.0000000000
      1761       587  TIP3      H2             14.8847028566      -10.7712512121      -10.1178214987  W2        587             0.0000000000
      1762       588  TIP3      OH2             8.7173128566      -16.8101712121      -10.0101614987  W2        588             0.0000000000
      1763       588  TIP3      H1              9.6312328566      -16.7312812121       -9.7367714987  W2        588             0.0000000000
      1764       588  TIP3      H2              8.7246228566      -17.4972112121      -10.6766014987  W2        588             0.0000000000
      1765       589  TIP3      OH2             7.3663728566      -11.4173212121       -4.9327714987  W2        589             0.0000000000
      1766       589  TIP3      H1              6.7190828566      -11.8791512121       -5.4656514987  W2        589             0.0000000000
      1767       589  TIP3      H2              7.7208328566      -12.0889912121       -4.3501514987  W2        589             0.0000000000
      1768       590  TIP3      OH2             8.2362928566      -13.3366212121       -3.1281514987  W2        590             0.0000000000
      1769       590  TIP3      H1              7.9019728566      -14.2168912121       -2.9561314987  W2        590             0.0000000000
      1770       590  TIP3      H2              8.4585328566      -12.9911212121       -2.2635914987  W2        590             0.0000000000
      1771       591  TIP3      OH2            25.7847728566      -12.5269812121       -0.1476714987  W2        591             0.0000000000
      1772       591  TIP3      H1             25.7634428566      -12.3421412121        0.7912685013  W2        591             0.0000000000
      1773       591  TIP3      H2             26.4753928566      -11.9585812121       -0.4885314987  W2        591             0.0000000000
      1774       592  TIP3      OH2            25.3480628566      -12.9598712121        2.7742385013  W2        592             0.0000000000
      1775       592  TIP3      H1             24.8609328566      -13.6954612121        2.4029785013  W2        592             0.0000000000
      1776       592  TIP3      H2             25.8973328566      -13.3534812121        3.4521785013  W2        592             0.0000000000
      1777       593  TIP3      OH2            23.7987928566      -17.1700612121        7.4122685013  W2        593             0.0000000000
      1778       593  TIP3      H1             22.9329028566      -17.2750912121        7.8064985013  W2        593             0.0000000000
      1779       593  TIP3      H2             24.1753828566      -16.4117312121        7.8587385013  W2        593             0.0000000000
      1780       594  TIP3      OH2            25.0997628566      -18.9136912121       -7.0734814987  W2        594             0.0000000000
      1781       594  TIP3      H1             25.9499028566      -18.4926012121       -6.9463214987  W2        594             0.0000000000
      1782       594  TIP3      H2             25.1052728566      -19.6536812121       -6.4663414987  W2        594             0.0000000000
      1783       595  TIP3      OH2            25.4943228566      -20.8599512121       -5.2499114987  W2        595             0.0000000000
      1784       595  TIP3      H1             24.7677828566      -21.3396912121       -4.8521514987  W2        595             0.0000000000
      1785       595  TIP3      H2             26.0756528566      -20.6544812121       -4.5177514987  W2        595             0.0000000000
      1786       596  TIP3      OH2            25.2534428566      -18.0752012121       -0.3021514987  W2        596             0.0000000000
      1787       596  TIP3      H1             26.0868628566      -18.4532012121       -0.5827914987  W2        596             0.0000000000
      1788       596  TIP3      H2             25.3654728566      -17.1320812121       -0.4212414987  W2        596             0.0000000000
      1789       597  TIP3      OH2            23.7396728566      -15.1974512121        2.0046885013  W2        597             0.0000000000
      1790       597  TIP3      H1             23.0922028566      -14.8723012121        2.6302085013  W2        597             0.0000000000
      1791       597  TIP3      H2             23.2220728566      -15.6376812121        1.3305185013  W2        597             0.0000000000
      1792       598  TIP3      OH2            25.7626328566      -20.9591012121       -8.8587814987  W2        598             0.0000000000
      1793       598  TIP3      H1             25.2407428566      -20.6026912121       -9.5776914987  W2        598             0.0000000000
      1794       598  TIP3      H2             25.7295528566      -20.2843212121       -8.1806914987  W2        598             0.0000000000
      1795       599  TIP3      OH2            24.1115328566      -23.7195412121      -10.3080714987  W2        599             0.0000000000
      1796       599  TIP3      H1             24.2079728566      -23.0528412121      -10.9881014987  W2        599             0.0000000000
      1797       599  TIP3      H2             23.9714928566      -24.5349112121      -10.7895214987  W2        599             0.0000000000
      1798       600  TIP3      OH2            23.2810028566      -22.3393012121       -4.6870414987  W2        600             0.0000000000
      1799       600  TIP3      H1             23.1308828566      -23.2844412121       -4.7072614987  W2        600             0.0000000000
      1800       600  TIP3      H2             22.9274528566      -22.0581612121       -3.8431314987  W2        600             0.0000000000
      1801       601  TIP3      OH2             8.3162428566      -20.2610812121       -0.6766614987  W2        601             0.0000000000
      1802       601  TIP3      H1              8.5005328566      -20.3429112121       -1.6123714987  W2        601             0.0000000000
      1803       601  TIP3      H2              9.1655328566      -20.3853812121       -0.2530214987  W2        601             0.0000000000
      1804       602  TIP3      OH2            24.1372928566      -20.3689712121        4.9517885013  W2        602             0.0000000000
      1805       602  TIP3      H1             24.7200228566      -21.1037412121        5.1435085013  W2        602             0.0000000000
      1806       602  TIP3      H2             24.7012228566      -19.5969412121        4.9983685013  W2        602             0.0000000000
      1807       603  TIP3      OH2            25.6340028566      -22.4663912121        5.6363285013  W2        603             0.0000000000
      1808       603  TIP3      H1             24.7706728566      -22.8451812121        5.4707985013  W2        603             0.0000000000
      1809       603  TIP3      H2             26.2383728566      -23.2049112121        5.5619085013  W2        603             0.0000000000
      1810       604  TIP3      OH2            23.3589128566      -26.3115612121      -11.1905214987  W2        604             0.0000000000
      1811       604  TIP3      H1             23.9694928566      -26.6828812121      -10.5537014987  W2        604             0.0000000000
      1812       604  TIP3      H2             22.5220628566      -26.7328712121      -10.9945214987  W2        604             0.0000000000
      1813       605  TIP3      OH2            22.9914828566      -24.7567212121       -6.2245314987  W2        605             0.0000000000
      1814       605  TIP3      H1             23.2711928566      -25.6636812121       -6.1003614987  W2        605             0.0000000000
      1815       605  TIP3      H2             23.7506528566      -24.3225712121       -6.6136114987  W2        605             0.0000000000
      1816       606  TIP3      OH2            23.6033128566      -24.1749812121       -0.7886414987  W2        606             0.0000000000
      1817       606  TIP3      H1             24.5361128566      -23.9629912121       -0.8230414987  W2        606             0.0000000000
      1818       606  TIP3      H2             23.3680628566      -24.0737712121        0.1336585013  W2        606             0.0000000000
      1819       607  TIP3      OH2            23.6325028566      -23.4384512121        1.9872985013  W2        607             0.0000000000
      1820       607  TIP3      H1             22.7896328566      -23.1704112121        2.3532785013  W2        607             0.0000000000
      1821       607  TIP3      H2             24.0749328566      -22.6162612121        1.7764085013  W2        607             0.0000000000
      1822       608  TIP3      OH2             7.9137228566      -24.9905812121        5.4642185013  W2        608             0.0000000000
      1823       608  TIP3      H1              8.8332128566      -25.1127512121        5.7005285013  W2        608             0.0000000000
      1824       608  TIP3      H2              7.4641728566      -25.7406112121        5.8535685013  W2        608             0.0000000000
      1825       609  TIP3      OH2            25.9156628566      -29.4584312121        7.3407985013  W2        609             0.0000000000
      1826       609  TIP3      H1             26.2653628566      -30.1120812121        6.7352685013  W2        609             0.0000000000
      1827       609  TIP3      H2             26.0626128566      -28.6210212121        6.9010585013  W2        609             0.0000000000
      1828       610  TIP3      OH2            23.6049628566      -27.4937912121       -6.1763314987  W2        610             0.0000000000
      1829       610  TIP3      H1             23.7874628566      -27.9426412121       -5.3508314987  W2        610             0.0000000000
      1830       610  TIP3      H2             23.0052528566      -28.0783512121       -6.6398714987  W2        610             0.0000000000
      1831       611  TIP3      OH2             9.1349728566      -26.6784212121       -1.6444914987  W2        611             0.0000000000
      1832       611  TIP3      H1              9.5801328566      -27.4701712121       -1.3425214987  W2        611             0.0000000000
      1833       611  TIP3      H2              9.6012728566      -25.9619012121       -1.2139314987  W2        611             0.0000000000
      1834       612  TIP3      OH2             7.4390028566      -23.6791212121       -0.5754714987  W2        612             0.0000000000
      1835       612  TIP3      H1              7.9309828566      -23.9000712121       -1.3662714987  W2        612             0.0000000000
      1836       612  TIP3      H2              7.8010928566      -22.8387812121       -0.2945214987  W2        612             0.0000000000
      1837       613  TIP3      OH2            25.4353828566      -27.3489712121        5.6899285013  W2        613             0.0000000000
      1838       613  TIP3      H1             24.5179528566      -27.0782612121        5.6542785013  W2        613             0.0000000000
      1839       613  TIP3      H2             25.5583228566      -27.8841312121        4.9058985013  W2        613             0.0000000000
      1840       614  TIP3      OH2            25.4715828566      -27.4259812121       -9.6483014987  W2        614             0.0000000000
      1841       614  TIP3      H1             25.8838428566      -28.1474112121      -10.1235014987  W2        614             0.0000000000
      1842       614  TIP3      H2             26.1532328566      -26.7565212121       -9.5898714987  W2        614             0.0000000000
      1843       615  TIP3      OH2             7.7526528566      -27.4212112121       -6.5212314987  W2        615             0.0000000000
      1844       615  TIP3      H1              6.8274928566      -27.2125512121       -6.6506814987  W2        615             0.0000000000
      1845       615  TIP3      H2              8.2066428566      -26.9371312121       -7.2110014987  W2        615             0.0000000000
      1846       616  TIP3      OH2            22.5233728566      -12.4370412121       -4.5754914987  W2        616             0.0000000000
      1847       616  TIP3      H1             23.1756628566      -12.7848312121       -5.1835814987  W2        616             0.0000000000
      1848       616  TIP3      H2             23.0337528566      -11.9487212121       -3.9295214987  W2        616             0.0000000000
      1849       617  TIP3      OH2             7.7161928566      -28.6833112121        1.8230185013  W2        617             0.0000000000
      1850       617  TIP3      H1              7.0512428566      -28.9292812121        2.4661085013  W2        617             0.0000000000
      1851       617  TIP3      H2              7.2733228566      -28.0612712121        1.2458185013  W2        617             0.0000000000
      1852       618  TIP3      OH2             9.9081228566      -15.5079012121        5.9675985013  W2        618             0.0000000000
      1853       618  TIP3      H1              9.0873728566      -15.3332512121        5.5070685013  W2        618             0.0000000000
      1854       618  TIP3      H2              9.6559028566      -15.5814312121        6.8880385013  W2        618             0.0000000000
      1855       619  TIP3      OH2            12.8624128566      -14.5337812121        2.2259985013  W2        619             0.0000000000
      1856       619  TIP3      H1             12.4375228566      -13.7239312121        1.9434585013  W2        619             0.0000000000
      1857       619  TIP3      H2             13.7666928566      -14.4483712121        1.9239785013  W2        619             0.0000000000
      1858       620  TIP3      OH2            17.1735528566      -13.1347812121        5.1853685013  W2        620             0.0000000000
      1859       620  TIP3      H1             17.3583028566      -13.4681712121        6.0633985013  W2        620             0.0000000000
      1860       620  TIP3      H2             18.0200028566      -12.8249212121        4.8632885013  W2        620             0.0000000000
      1861       621  TIP3      OH2            19.5185928566      -11.8488912121        4.4295085013  W2        621             0.0000000000
      1862       621  TIP3      H1             20.1954828566      -12.4816612121        4.1894285013  W2        621             0.0000000000
      1863       621  TIP3      H2             19.8404728566      -11.4478412121        5.2368385013  W2        621             0.0000000000
      1864       622  TIP3      OH2            24.4359728566      -29.2593412121        3.5090085013  W2        622             0.0000000000
      1865       622  TIP3      H1             23.6233228566      -28.9343112121        3.1214785013  W2        622             0.0000000000
      1866       622  TIP3      H2             24.6688228566      -30.0194912121        2.9759185013  W2        622             0.0000000000
      1867       623  TIP3      OH2            10.2640828566      -11.2773912121        2.2735285013  W2        623             0.0000000000
      1868       623  TIP3      H1              9.5437228566      -10.8372912121        1.8222985013  W2        623             0.0000000000
      1869       623  TIP3      H2              9.8984828566      -11.5279212121        3.1219285013  W2        623             0.0000000000
      1870       624  TIP3      OH2            12.7313428566      -11.6770012121        1.3032485013  W2        624             0.0000000000
      1871       624  TIP3      H1             11.8665628566      -11.6051512121        1.7072585013  W2        624             0.0000000000
      1872       624  TIP3      H2             12.6762428566      -11.1302712121        0.5194985013  W2        624             0.0000000000
      1873       625  TIP3      OH2            17.4419028566      -11.7891112121        0.4788485013  W2        625             0.0000000000
      1874       625  TIP3      H1             16.9853028566      -11.2601412121       -0.1753114987  W2        625             0.0000000000
      1875       625  TIP3      H2             17.6047028566      -11.1859712121        1.2040785013  W2        625             0.0000000000
      1876       626  TIP3      OH2            19.7695328566      -12.9111512121        1.4238785013  W2        626             0.0000000000
      1877       626  TIP3      H1             18.8649028566      -12.7461312121        1.1580885013  W2        626             0.0000000000
      1878       626  TIP3      H2             20.1983928566      -12.0579312121        1.3582185013  W2        626             0.0000000000
      1879       627  TIP3      OH2            22.3737228566      -11.3412412121        1.7186585013  W2        627             0.0000000000
      1880       627  TIP3      H1             22.1919228566      -10.4253512121        1.5081485013  W2        627             0.0000000000
      1881       627  TIP3      H2             22.5505028566      -11.7515312121        0.8721185013  W2        627             0.0000000000
      1882       628  TIP3      OH2             9.6788928566      -12.6541412121       -0.8162914987  W2        628             0.0000000000
      1883       628  TIP3      H1              9.6604928566      -13.0796312121        0.0409385013  W2        628             0.0000000000
      1884       628  TIP3      H2             10.4836828566      -12.9726412121       -1.2250714987  W2        628             0.0000000000
      1885       629  TIP3      OH2            11.8202028566      -13.9442712121       -2.1613014987  W2        629             0.0000000000
      1886       629  TIP3      H1             11.6012728566      -14.8605312121       -1.9917014987  W2        629             0.0000000000
      1887       629  TIP3      H2             12.6444228566      -13.8042312121       -1.6951614987  W2        629             0.0000000000
      1888       630  TIP3      OH2            14.3574528566      -13.4743412121       -1.3125014987  W2        630             0.0000000000
      1889       630  TIP3      H1             14.5700228566      -14.3624412121       -1.5994114987  W2        630             0.0000000000
      1890       630  TIP3      H2             14.4219628566      -13.5085712121       -0.3581014987  W2        630             0.0000000000
      1891       631  TIP3      OH2            17.8658228566      -27.8102812121       -2.1681714987  W2        631             0.0000000000
      1892       631  TIP3      H1             17.1915028566      -28.4397212121       -1.9125914987  W2        631             0.0000000000
      1893       631  TIP3      H2             18.4297428566      -28.2943912121       -2.7713814987  W2        631             0.0000000000
      1894       632  TIP3      OH2            23.0085428566      -29.7028812121       -2.0554614987  W2        632             0.0000000000
      1895       632  TIP3      H1             23.6123028566      -29.1553412121       -2.5573614987  W2        632             0.0000000000
      1896       632  TIP3      H2             22.1387428566      -29.3838412121       -2.2960514987  W2        632             0.0000000000
      1897       633  TIP3      OH2            24.7355828566      -28.5640112121       -3.7223714987  W2        633             0.0000000000
      1898       633  TIP3      H1             25.3473328566      -29.0784412121       -4.2490114987  W2        633             0.0000000000
      1899       633  TIP3      H2             25.1179228566      -27.6868012121       -3.6989314987  W2        633             0.0000000000
      1900       634  TIP3      OH2            10.1925728566      -29.1762512121       -4.3461814987  W2        634             0.0000000000
      1901       634  TIP3      H1              9.4155528566      -29.4107612121       -4.8535914987  W2        634             0.0000000000
      1902       634  TIP3      H2             10.7229328566      -29.9730412121       -4.3373814987  W2        634             0.0000000000
      1903       635  TIP3      OH2             9.0289128566      -29.3784412121       -8.5425714987  W2        635             0.0000000000
      1904       635  TIP3      H1              9.4679828566      -28.7673912121       -9.1342214987  W2        635             0.0000000000
      1905       635  TIP3      H2              8.3951528566      -28.8400312121       -8.0685714987  W2        635             0.0000000000
      1906       636  TIP3      OH2            14.7718328566      -29.2495412121       -4.5328714987  W2        636             0.0000000000
      1907       636  TIP3      H1             15.6461728566      -28.8611112121       -4.5624414987  W2        636             0.0000000000
      1908       636  TIP3      H2             14.6359128566      -29.4647612121       -3.6101514987  W2        636             0.0000000000
      1909       637  TIP3      OH2            20.3286728566      -29.2195612121       -2.8837014987  W2        637             0.0000000000
      1910       637  TIP3      H1             20.4048328566      -29.1244012121       -3.8331014987  W2        637             0.0000000000
      1911       637  TIP3      H2             20.0535928566      -30.1272712121       -2.7547914987  W2        637             0.0000000000
      1912       638  TIP3      OH2            21.6819328566      -29.1937812121       -7.1912014987  W2        638             0.0000000000
      1913       638  TIP3      H1             20.9790428566      -28.5788612121       -7.4010614987  W2        638             0.0000000000
      1914       638  TIP3      H2             21.2370728566      -30.0311112121       -7.0601114987  W2        638             0.0000000000
      1915       639  TIP3      OH2             8.9298628566      -13.4302212121       -7.6450614987  W2        639             0.0000000000
      1916       639  TIP3      H1              8.2448528566      -13.4683312121       -8.3125514987  W2        639             0.0000000000
      1917       639  TIP3      H2              8.9335828566      -12.5174612121       -7.3568514987  W2        639             0.0000000000
      1918       640  TIP3      OH2            10.8898228566      -27.4622912121      -10.1001614987  W2        640             0.0000000000
      1919       640  TIP3      H1             11.3811628566      -28.0920512121      -10.6276114987  W2        640             0.0000000000
      1920       640  TIP3      H2             11.5134528566      -27.1663512121       -9.4370414987  W2        640             0.0000000000
      1921       641  TIP3      OH2            15.9158328566      -27.1691412121       -7.6431114987  W2        641             0.0000000000
      1922       641  TIP3      H1             16.0939628566      -27.8158212121       -6.9602514987  W2        641             0.0000000000
      1923       641  TIP3      H2             15.8624528566      -26.3353712121       -7.1760014987  W2        641             0.0000000000
      1924       642  TIP3      OH2            17.7942128566      -12.2207312121       -9.2474414987  W2        642             0.0000000000
      1925       642  TIP3      H1             18.6602328566      -11.8539912121       -9.4256214987  W2        642             0.0000000000
      1926       642  TIP3      H2             17.5474928566      -12.6599312121      -10.0613614987  W2        642             0.0000000000
      1927       643  TIP3      OH2            24.5031728566      -12.6577012121       -6.5683314987  W2        643             0.0000000000
      1928       643  TIP3      H1             24.3088828566      -13.4054912121       -7.1333714987  W2        643             0.0000000000
      1929       643  TIP3      H2             24.4641828566      -11.8996912121       -7.1515414987  W2        643             0.0000000000
      1930       644  TIP3      OH2            10.1503728566      -28.6620612121        5.1714385013  W2        644             0.0000000000
      1931       644  TIP3      H1              9.7841928566      -29.4278012121        5.6139085013  W2        644             0.0000000000
      1932       644  TIP3      H2             11.0632228566      -28.6330412121        5.4579485013  W2        644             0.0000000000
      1933       645  TIP3      OH2            12.1234528566      -29.3116212121        6.7071485013  W2        645             0.0000000000
      1934       645  TIP3      H1             13.0218128566      -29.5856012121        6.5224885013  W2        645             0.0000000000
      1935       645  TIP3      H2             11.7367628566      -30.0540212121        7.1714085013  W2        645             0.0000000000
      1936       646  TIP3      OH2            10.7479828566      -12.5101412121      -10.6198514987  W2        646             0.0000000000
      1937       646  TIP3      H1             10.4804428566      -12.2238512121       -9.7465414987  W2        646             0.0000000000
      1938       646  TIP3      H2             11.5192428566      -13.0562212121      -10.4676014987  W2        646             0.0000000000
      1939       647  TIP3      OH2            20.5446828566      -29.9790912121        6.8894285013  W2        647             0.0000000000
      1940       647  TIP3      H1             20.6214028566      -30.4050212121        7.7431985013  W2        647             0.0000000000
      1941       647  TIP3      H2             21.4383428566      -29.9656212121        6.5467785013  W2        647             0.0000000000
      1942       648  TIP3      OH2            23.7207928566      -13.9064612121        5.5818485013  W2        648             0.0000000000
      1943       648  TIP3      H1             22.9389828566      -14.0926612121        5.0619085013  W2        648             0.0000000000
      1944       648  TIP3      H2             23.6487828566      -12.9770312121        5.7990985013  W2        648             0.0000000000
      1945       649  TIP3      OH2            29.4284628566      -21.1507412121        0.6243785013  W2        649             0.0000000000
      1946       649  TIP3      H1             29.4696728566      -21.7764112121        1.3476185013  W2        649             0.0000000000
      1947       649  TIP3      H2             30.1312328566      -20.5268812121        0.8064185013  W2        649             0.0000000000
      1948       650  TIP3      OH2            26.9618228566      -23.0405912121       -5.4478314987  W2        650             0.0000000000
      1949       650  TIP3      H1             26.5141628566      -22.1947212121       -5.4661814987  W2        650             0.0000000000
      1950       650  TIP3      H2             26.4009428566      -23.6201712121       -5.9633214987  W2        650             0.0000000000
      1951       651  TIP3      OH2            27.6724328566      -20.8786312121       -3.3220314987  W2        651             0.0000000000
      1952       651  TIP3      H1             27.8857828566      -21.6484712121       -2.7947314987  W2        651             0.0000000000
      1953       651  TIP3      H2             28.4101928566      -20.7889612121       -3.9252714987  W2        651             0.0000000000
      1954       652  TIP3      OH2            28.3650828566      -23.4403512121       -2.2004114987  W2        652             0.0000000000
      1955       652  TIP3      H1             29.0187428566      -23.9901812121       -1.7684014987  W2        652             0.0000000000
      1956       652  TIP3      H2             28.3890128566      -23.7144512121       -3.1172114987  W2        652             0.0000000000
      1957       653  TIP3      OH2            27.6527828566      -17.6084312121       -7.0320214987  W2        653             0.0000000000
      1958       653  TIP3      H1             27.3808728566      -17.3793312121       -7.9207314987  W2        653             0.0000000000
      1959       653  TIP3      H2             27.6983528566      -16.7705512121       -6.5714914987  W2        653             0.0000000000
      1960       654  TIP3      OH2            26.9825028566      -18.5037212121        2.3029485013  W2        654             0.0000000000
      1961       654  TIP3      H1             26.4813428566      -18.5317812121        1.4879185013  W2        654             0.0000000000
      1962       654  TIP3      H2             26.9878728566      -19.4094012121        2.6126785013  W2        654             0.0000000000
      1963       655  TIP3      OH2            26.7327728566      -15.7233412121       -0.8130314987  W2        655             0.0000000000
      1964       655  TIP3      H1             27.6788328566      -15.8676412121       -0.8320814987  W2        655             0.0000000000
      1965       655  TIP3      H2             26.6204028566      -14.9390612121       -0.2759114987  W2        655             0.0000000000
      1966       656  TIP3      OH2            29.2315528566      -17.1801812121        3.3462285013  W2        656             0.0000000000
      1967       656  TIP3      H1             29.4476828566      -17.5416212121        4.2058085013  W2        656             0.0000000000
      1968       656  TIP3      H2             28.3760228566      -17.5548012121        3.1365785013  W2        656             0.0000000000
      1969       657  TIP3      OH2            29.6914128566      -23.4243312121        2.3038685013  W2        657             0.0000000000
      1970       657  TIP3      H1             29.6533528566      -23.0241712121        3.1725785013  W2        657             0.0000000000
      1971       657  TIP3      H2             29.2005228566      -24.2410912121        2.3941585013  W2        657             0.0000000000
      1972       658  TIP3      OH2            26.2994928566      -26.3081512121       -3.8456614987  W2        658             0.0000000000
      1973       658  TIP3      H1             26.9302628566      -26.3369412121       -3.1262714987  W2        658             0.0000000000
      1974       658  TIP3      H2             26.7489228566      -26.7332812121       -4.5760714987  W2        658             0.0000000000
      1975       659  TIP3      OH2            27.5737028566      -25.5619512121       -8.4216214987  W2        659             0.0000000000
      1976       659  TIP3      H1             28.0478728566      -24.9709612121       -9.0065314987  W2        659             0.0000000000
      1977       659  TIP3      H2             26.8563428566      -25.0316612121       -8.0746114987  W2        659             0.0000000000
      1978       660  TIP3      OH2            29.3481428566      -24.4672912121       -4.7381614987  W2        660             0.0000000000
      1979       660  TIP3      H1             28.4589428566      -24.3677412121       -5.0782014987  W2        660             0.0000000000
      1980       660  TIP3      H2             29.6446328566      -25.3089912121       -5.0843714987  W2        660             0.0000000000
      1981       661  TIP3      OH2            29.8104828566      -18.7156212121        5.5840685013  W2        661             0.0000000000
      1982       661  TIP3      H1             30.5427228566      -18.4610312121        6.1455185013  W2        661             0.0000000000
      1983       661  TIP3      H2             29.0303528566      -18.5110812121        6.0996085013  W2        661             0.0000000000
      1984       662  TIP3      OH2            27.1434228566      -20.9515512121        3.5053585013  W2        662             0.0000000000
      1985       662  TIP3      H1             27.3662828566      -21.3695912121        4.3371085013  W2        662             0.0000000000
      1986       662  TIP3      H2             26.5414328566      -21.5640512121        3.0826385013  W2        662             0.0000000000
      1987       663  TIP3      OH2            28.2651628566      -21.0320112121       -9.8181014987  W2        663             0.0000000000
      1988       663  TIP3      H1             28.8811528566      -20.4052912121       -9.4386214987  W2        663             0.0000000000
      1989       663  TIP3      H2             27.4034228566      -20.7160312121       -9.5464514987  W2        663             0.0000000000
      1990       664  TIP3      OH2            28.7773728566      -26.1982812121        3.0634985013  W2        664             0.0000000000
      1991       664  TIP3      H1             27.8846028566      -25.8597412121        2.9958985013  W2        664             0.0000000000
      1992       664  TIP3      H2             28.6786528566      -27.0536712121        3.4815785013  W2        664             0.0000000000
      1993       665  TIP3      OH2            28.4285728566      -14.3938412121        1.4984385013  W2        665             0.0000000000
      1994       665  TIP3      H1             28.6456028566      -15.3256012121        1.4674085013  W2        665             0.0000000000
      1995       665  TIP3      H2             28.6749228566      -14.1193412121        2.3817185013  W2        665             0.0000000000
      1996       666  TIP3      OH2            29.6802028566      -19.1196312121       -8.3255414987  W2        666             0.0000000000
      1997       666  TIP3      H1             28.9941328566      -18.7673812121       -7.7585714987  W2        666             0.0000000000
      1998       666  TIP3      H2             30.2029928566      -18.3566712121       -8.5721114987  W2        666             0.0000000000
      1999       667  TIP3      OH2            28.6120128566      -23.8414412121      -10.3128214987  W2        667             0.0000000000
      2000       667  TIP3      H1             28.5672728566      -22.9021312121      -10.1341214987  W2        667             0.0000000000
      2001       667  TIP3      H2             27.7243328566      -24.0769512121      -10.5826114987  W2        667             0.0000000000
      2002       668  TIP3      OH2            29.4202128566      -29.0597812121       -1.6397214987  W2        668             0.0000000000
      2003       668  TIP3      H1             29.1911928566      -29.0005312121       -2.5672214987  W2        668             0.0000000000
      2004       668  TIP3      H2             28.9775528566      -29.8512312121       -1.3333114987  W2        668             0.0000000000
      2005       669  TIP3      OH2            28.3505428566      -15.1190712121       -5.4791414987  W2        669             0.0000000000
      2006       669  TIP3      H1             27.5184028566      -14.6468012121       -5.4520014987  W2        669             0.0000000000
      2007       669  TIP3      H2             28.8963728566      -14.6093112121       -6.0778314987  W2        669             0.0000000000
      2008       670  TIP3      OH2            27.6389128566      -12.5067012121        5.8506585013  W2        670             0.0000000000
      2009       670  TIP3      H1             28.1791328566      -12.7233012121        6.6105785013  W2        670             0.0000000000
      2010       670  TIP3      H2             27.1577128566      -13.3121012121        5.6609085013  W2        670             0.0000000000
      2011       671  TIP3      OH2            27.5458628566      -18.6962912121        6.8050885013  W2        671             0.0000000000
      2012       671  TIP3      H1             27.6899128566      -19.5982212121        6.5187585013  W2        671             0.0000000000
      2013       671  TIP3      H2             26.7736028566      -18.4100812121        6.3173185013  W2        671             0.0000000000
      2014       672  TIP3      OH2            28.3785128566      -21.4959612121        6.2250185013  W2        672             0.0000000000
      2015       672  TIP3      H1             28.7866328566      -22.3533012121        6.1040785013  W2        672             0.0000000000
      2016       672  TIP3      H2             28.1182728566      -21.4818312121        7.1460485013  W2        672             0.0000000000
      2017       673  TIP3      OH2            29.3238228566      -26.0135812121        6.2976485013  W2        673             0.0000000000
      2018       673  TIP3      H1             29.5355628566      -26.7199712121        5.6873985013  W2        673             0.0000000000
      2019       673  TIP3      H2             29.2125728566      -26.4509812121        7.1417685013  W2        673             0.0000000000
      2020       674  TIP3      OH2            27.5733128566      -16.8101712121      -10.0101614987  W2        674             0.0000000000
      2021       674  TIP3      H1             28.4872328566      -16.7312812121       -9.7367714987  W2        674             0.0000000000
      2022       674  TIP3      H2             27.5806228566      -17.4972112121      -10.6766014987  W2        674             0.0000000000
      2023       675  TIP3      OH2            26.2223728566      -11.4173212121       -4.9327714987  W2        675             0.0000000000
      2024       675  TIP3      H1             25.5750828566      -11.8791512121       -5.4656514987  W2        675             0.0000000000
      2025       675  TIP3      H2             26.5768328566      -12.0889912121       -4.3501514987  W2        675             0.0000000000
      2026       676  TIP3      OH2            27.0922928566      -13.3366212121       -3.1281514987  W2        676             0.0000000000
      2027       676  TIP3      H1             26.7579728566      -14.2168912121       -2.9561314987  W2        676             0.0000000000
      2028       676  TIP3      H2             27.3145328566      -12.9911212121       -2.2635914987  W2        676             0.0000000000
      2029       677  TIP3      OH2            27.1722428566      -20.2610812121       -0.6766614987  W2        677             0.0000000000
      2030       677  TIP3      H1             27.3565328566      -20.3429112121       -1.6123714987  W2        677             0.0000000000
      2031       677  TIP3      H2             28.0215328566      -20.3853812121       -0.2530214987  W2        677             0.0000000000
      2032       678  TIP3      OH2            26.7697228566      -24.9905812121        5.4642185013  W2        678             0.0000000000
      2033       678  TIP3      H1             27.6892128566      -25.1127512121        5.7005285013  W2        678             0.0000000000
      2034       678  TIP3      H2             26.3201728566      -25.7406112121        5.8535685013  W2        678             0.0000000000
      2035       679  TIP3      OH2            27.9909728566      -26.6784212121       -1.6444914987  W2        679             0.0000000000
      2036       679  TIP3      H1             28.4361328566      -27.4701712121       -1.3425214987  W2        679             0.0000000000
      2037       679  TIP3      H2             28.4572728566      -25.9619012121       -1.2139314987  W2        679             0.0000000000
      2038       680  TIP3      OH2            26.2950028566      -23.6791212121       -0.5754714987  W2        680             0.0000000000
      2039       680  TIP3      H1             26.7869828566      -23.9000712121       -1.3662714987  W2        680             0.0000000000
      2040       680  TIP3      H2             26.6570928566      -22.8387812121       -0.2945214987  W2        680             0.0000000000
      2041       681  TIP3      OH2            26.6086528566      -27.4212112121       -6.5212314987  W2        681             0.0000000000
      2042       681  TIP3      H1             25.6834928566      -27.2125512121       -6.6506814987  W2        681             0.0000000000
      2043       681  TIP3      H2             27.0626428566      -26.9371312121       -7.2110014987  W2        681             0.0000000000
      2044       682  TIP3      OH2            26.5721928566      -28.6833112121        1.8230185013  W2        682             0.0000000000
      2045       682  TIP3      H1             25.9072428566      -28.9292812121        2.4661085013  W2        682             0.0000000000
      2046       682  TIP3      H2             26.1293228566      -28.0612712121        1.2458185013  W2        682             0.0000000000
      2047       683  TIP3      OH2            28.7641228566      -15.5079012121        5.9675985013  W2        683             0.0000000000
      2048       683  TIP3      H1             27.9433728566      -15.3332512121        5.5070685013  W2        683             0.0000000000
      2049       683  TIP3      H2             28.5119028566      -15.5814312121        6.8880385013  W2        683             0.0000000000
      2050       684  TIP3      OH2            29.1200828566      -11.2773912121        2.2735285013  W2        684             0.0000000000
      2051       684  TIP3      H1             28.3997228566      -10.8372912121        1.8222985013  W2        684             0.0000000000
      2052       684  TIP3      H2             28.7544828566      -11.5279212121        3.1219285013  W2        684             0.0000000000
      2053       685  TIP3      OH2            28.5348928566      -12.6541412121       -0.8162914987  W2        685             0.0000000000
      2054       685  TIP3      H1             28.5164928566      -13.0796312121        0.0409385013  W2        685             0.0000000000
      2055       685  TIP3      H2             29.3396828566      -12.9726412121       -1.2250714987  W2        685             0.0000000000
      2056       686  TIP3      OH2            29.0485728566      -29.1762512121       -4.3461814987  W2        686             0.0000000000
      2057       686  TIP3      H1             28.2715528566      -29.4107612121       -4.8535914987  W2        686             0.0000000000
      2058       686  TIP3      H2             29.5789328566      -29.9730412121       -4.3373814987  W2        686             0.0000000000
      2059       687  TIP3      OH2            27.8849128566      -29.3784412121       -8.5425714987  W2        687             0.0000000000
      2060       687  TIP3      H1             28.3239828566      -28.7673912121       -9.1342214987  W2        687             0.0000000000
      2061       687  TIP3      H2             27.2511528566      -28.8400312121       -8.0685714987  W2        687             0.0000000000
      2062       688  TIP3      OH2            27.7858628566      -13.4302212121       -7.6450614987  W2        688             0.0000000000
      2063       688  TIP3      H1             27.1008528566      -13.4683312121       -8.3125514987  W2        688             0.0000000000
      2064       688  TIP3      H2             27.7895828566      -12.5174612121       -7.3568514987  W2        688             0.0000000000
      2065       689  TIP3      OH2            29.7458228566      -27.4622912121      -10.1001614987  W2        689             0.0000000000
      2066       689  TIP3      H1             30.2371628566      -28.0920512121      -10.6276114987  W2        689             0.0000000000
      2067       689  TIP3      H2             30.3694528566      -27.1663512121       -9.4370414987  W2        689             0.0000000000
      2068       690  TIP3      OH2            29.0063728566      -28.6620612121        5.1714385013  W2        690             0.0000000000
      2069       690  TIP3      H1             28.6401928566      -29.4278012121        5.6139085013  W2        690             0.0000000000
      2070       690  TIP3      H2             29.9192228566      -28.6330412121        5.4579485013  W2        690             0.0000000000
      2071       691  TIP3      OH2            29.6039828566      -12.5101412121      -10.6198514987  W2        691             0.0000000000
      2072       691  TIP3      H1             29.3364428566      -12.2238512121       -9.7465414987  W2        691             0.0000000000
      2073       691  TIP3      H2             30.3752428566      -13.0562212121      -10.4676014987  W2        691             0.0000000000
      2074       692  TIP3      OH2           -18.4411671434       -1.1640212121       -4.3874314987  W2        692             0.0000000000
      2075       692  TIP3      H1            -18.3520571434       -0.2202012121       -4.5197214987  W2        692             0.0000000000
      2076       692  TIP3      H2            -19.0794071434       -1.4393812121       -5.0454914987  W2        692             0.0000000000
      2077       693  TIP3      OH2           -19.5080371434       -1.9089512121       -0.9686114987  W2        693             0.0000000000
      2078       693  TIP3      H1            -19.5462871434       -2.5553212121       -0.2636514987  W2        693             0.0000000000
      2079       693  TIP3      H2            -19.8303871434       -2.3755112121       -1.7397414987  W2        693             0.0000000000
      2080       694  TIP3      OH2           -27.1395371434       -2.2947412121        0.6243785013  W2        694             0.0000000000
      2081       694  TIP3      H1            -27.0983271434       -2.9204112121        1.3476185013  W2        694             0.0000000000
      2082       694  TIP3      H2            -26.4367671434       -1.6708812121        0.8064185013  W2        694             0.0000000000
      2083       695  TIP3      OH2           -15.8020171434        1.0300887879       -2.6671014987  W2        695             0.0000000000
      2084       695  TIP3      H1            -16.2427471434        0.3096887879       -2.2165414987  W2        695             0.0000000000
      2085       695  TIP3      H2            -15.8150471434        1.7508087879       -2.0373314987  W2        695             0.0000000000
      2086       696  TIP3      OH2           -26.2162271434        2.1551487879       -0.8407114987  W2        696             0.0000000000
      2087       696  TIP3      H1            -26.5857071434        1.3531987879       -1.2102814987  W2        696             0.0000000000
      2088       696  TIP3      H2            -25.2751171434        1.9866387879       -0.7943714987  W2        696             0.0000000000
      2089       697  TIP3      OH2           -29.6061771434       -4.1845912121       -5.4478314987  W2        697             0.0000000000
      2090       697  TIP3      H1            -30.0538371434       -3.3387212121       -5.4661814987  W2        697             0.0000000000
      2091       697  TIP3      H2            -30.1670571434       -4.7641712121       -5.9633214987  W2        697             0.0000000000
      2092       698  TIP3      OH2           -28.8955671434       -2.0226312121       -3.3220314987  W2        698             0.0000000000
      2093       698  TIP3      H1            -28.6822171434       -2.7924712121       -2.7947314987  W2        698             0.0000000000
      2094       698  TIP3      H2            -28.1578071434       -1.9329612121       -3.9252714987  W2        698             0.0000000000
      2095       699  TIP3      OH2           -18.6904671434        6.1342587879       -2.4550614987  W2        699             0.0000000000
      2096       699  TIP3      H1            -18.0708271434        5.4577287879       -2.7281414987  W2        699             0.0000000000
      2097       699  TIP3      H2            -18.8987271434        5.9163387879       -1.5465714987  W2        699             0.0000000000
      2098       700  TIP3      OH2           -21.1185971434        0.5231887879       -0.5625114987  W2        700             0.0000000000
      2099       700  TIP3      H1            -20.8148071434       -0.1626712121       -1.1571014987  W2        700             0.0000000000
      2100       700  TIP3      H2            -20.3971971434        0.6420587879        0.0552885013  W2        700             0.0000000000
      2101       701  TIP3      OH2           -12.4556171434       -7.8752812121        0.2981085013  W2        701             0.0000000000
      2102       701  TIP3      H1            -12.4063971434       -7.2651612121        1.0340185013  W2        701             0.0000000000
      2103       701  TIP3      H2            -12.0301071434       -7.4141912121       -0.4247814987  W2        701             0.0000000000
      2104       702  TIP3      OH2           -17.9778971434       -5.0825712121       -0.2350314987  W2        702             0.0000000000
      2105       702  TIP3      H1            -17.8353071434       -6.0288712121       -0.2148714987  W2        702             0.0000000000
      2106       702  TIP3      H2            -18.0839971434       -4.8755912121       -1.1635414987  W2        702             0.0000000000
      2107       703  TIP3      OH2           -24.8230671434       -6.9809312121       -2.9625514987  W2        703             0.0000000000
      2108       703  TIP3      H1            -24.7799571434       -6.1210812121       -3.3809214987  W2        703             0.0000000000
      2109       703  TIP3      H2            -25.2806571434       -7.5334612121       -3.5962314987  W2        703             0.0000000000
      2110       704  TIP3      OH2           -17.1007971434       -6.8503712121       -4.5617214987  W2        704             0.0000000000
      2111       704  TIP3      H1            -16.4543671434       -7.1790512121       -3.9369614987  W2        704             0.0000000000
      2112       704  TIP3      H2            -16.5908571434       -6.3324712121       -5.1845814987  W2        704             0.0000000000
      2113       705  TIP3      OH2           -28.2029171434       -4.5843512121       -2.2004114987  W2        705             0.0000000000
      2114       705  TIP3      H1            -27.5492571434       -5.1341812121       -1.7684014987  W2        705             0.0000000000
      2115       705  TIP3      H2            -28.1789871434       -4.8584512121       -3.1172114987  W2        705             0.0000000000
      2116       706  TIP3      OH2           -23.0464671434       -3.0342212121       -2.9852614987  W2        706             0.0000000000
      2117       706  TIP3      H1            -22.4303671434       -3.5606812121       -2.4758614987  W2        706             0.0000000000
      2118       706  TIP3      H2            -23.6325871434       -3.6743512121       -3.3889014987  W2        706             0.0000000000
      2119       707  TIP3      OH2           -12.0641571434       -6.3973612121        2.5340885013  W2        707             0.0000000000
      2120       707  TIP3      H1            -12.7526971434       -5.7392912121        2.4387485013  W2        707             0.0000000000
      2121       707  TIP3      H2            -12.0486971434       -6.5945712121        3.4706285013  W2        707             0.0000000000
      2122       708  TIP3      OH2           -26.0128771434       -8.0630912121        1.1115285013  W2        708             0.0000000000
      2123       708  TIP3      H1            -26.2317071434       -7.5330312121        0.3451285013  W2        708             0.0000000000
      2124       708  TIP3      H2            -26.6807871434       -7.8365412121        1.7586685013  W2        708             0.0000000000
      2125       709  TIP3      OH2           -18.6438971434        1.4370187879       -5.3445614987  W2        709             0.0000000000
      2126       709  TIP3      H1            -18.9393871434        1.1142487879       -6.1958714987  W2        709             0.0000000000
      2127       709  TIP3      H2            -18.9681171434        2.3366887879       -5.3033014987  W2        709             0.0000000000
      2128       710  TIP3      OH2           -23.4437371434       -0.3875212121        1.3988985013  W2        710             0.0000000000
      2129       710  TIP3      H1            -24.1838271434        0.2106287879        1.5024185013  W2        710             0.0000000000
      2130       710  TIP3      H2            -22.7297871434        0.1664387879        1.0832585013  W2        710             0.0000000000
      2131       711  TIP3      OH2           -15.3369571434       -7.5594412121       -2.5811314987  W2        711             0.0000000000
      2132       711  TIP3      H1            -15.5521571434       -8.3251012121       -2.0485314987  W2        711             0.0000000000
      2133       711  TIP3      H2            -14.6812171434       -7.0869812121       -2.0682814987  W2        711             0.0000000000
      2134       712  TIP3      OH2           -26.4191471434       -6.1709112121       -0.9362514987  W2        712             0.0000000000
      2135       712  TIP3      H1            -25.8055171434       -5.5381512121       -0.5630114987  W2        712             0.0000000000
      2136       712  TIP3      H2            -25.9070771434       -6.6434112121       -1.5925614987  W2        712             0.0000000000
      2137       713  TIP3      OH2           -25.0363071434        1.5767787879        2.1860485013  W2        713             0.0000000000
      2138       713  TIP3      H1            -25.0415471434        2.4561287879        1.8079785013  W2        713             0.0000000000
      2139       713  TIP3      H2            -25.8898971434        1.4931887879        2.6110385013  W2        713             0.0000000000
      2140       714  TIP3      OH2           -28.9152171434        1.2475687879       -7.0320214987  W2        714             0.0000000000
      2141       714  TIP3      H1            -29.1871271434        1.4766687879       -7.9207314987  W2        714             0.0000000000
      2142       714  TIP3      H2            -28.8696471434        2.0854487879       -6.5714914987  W2        714             0.0000000000
      2143       715  TIP3      OH2           -15.2902471434        2.8691587879       -0.3191714987  W2        715             0.0000000000
      2144       715  TIP3      H1            -16.2318771434        2.9275487879       -0.1574814987  W2        715             0.0000000000
      2145       715  TIP3      H2            -15.0136371434        3.7752087879       -0.4562014987  W2        715             0.0000000000
      2146       716  TIP3      OH2           -14.9895471434       -8.8443112121        1.0982185013  W2        716             0.0000000000
      2147       716  TIP3      H1            -15.7256271434       -8.2336012121        1.0603485013  W2        716             0.0000000000
      2148       716  TIP3      H2            -14.3061471434       -8.4294112121        0.5718585013  W2        716             0.0000000000
      2149       717  TIP3      OH2           -21.9864071434      -10.7575812121       -1.4359814987  W2        717             0.0000000000
      2150       717  TIP3      H1            -22.1039871434      -11.7059812121       -1.4901514987  W2        717             0.0000000000
      2151       717  TIP3      H2            -22.8413971434      -10.4249712121       -1.1628714987  W2        717             0.0000000000
      2152       718  TIP3      OH2           -17.0381271434        4.6505087879       -3.6940114987  W2        718             0.0000000000
      2153       718  TIP3      H1            -16.6128971434        3.9432987879       -4.1790514987  W2        718             0.0000000000
      2154       718  TIP3      H2            -16.7211271434        5.4517787879       -4.1107914987  W2        718             0.0000000000
      2155       719  TIP3      OH2           -15.8784771434        2.5513587879       -5.1853514987  W2        719             0.0000000000
      2156       719  TIP3      H1            -16.1359971434        1.8613687879       -5.7967614987  W2        719             0.0000000000
      2157       719  TIP3      H2            -15.8073971434        2.1084787879       -4.3397614987  W2        719             0.0000000000
      2158       720  TIP3      OH2           -14.1924571434        1.1180287879        3.2919985013  W2        720             0.0000000000
      2159       720  TIP3      H1            -14.0528271434        0.5262787879        2.5526985013  W2        720             0.0000000000
      2160       720  TIP3      H2            -14.0251771434        1.9906187879        2.9358785013  W2        720             0.0000000000
      2161       721  TIP3      OH2           -19.7199171434       -1.9200212121       -6.9354014987  W2        721             0.0000000000
      2162       721  TIP3      H1            -20.4313671434       -1.3850512121       -7.2873514987  W2        721             0.0000000000
      2163       721  TIP3      H2            -19.0289571434       -1.8648112121       -7.5955114987  W2        721             0.0000000000
      2164       722  TIP3      OH2           -19.6659971434       -3.4625912121       -9.8969014987  W2        722             0.0000000000
      2165       722  TIP3      H1            -18.9650071434       -3.4399012121       -9.2455014987  W2        722             0.0000000000
      2166       722  TIP3      H2            -19.3637071434       -4.0906212121      -10.5529714987  W2        722             0.0000000000
      2167       723  TIP3      OH2           -12.3505271434       -2.5421712121        1.3580385013  W2        723             0.0000000000
      2168       723  TIP3      H1            -13.0031171434       -1.8476112121        1.4471285013  W2        723             0.0000000000
      2169       723  TIP3      H2            -11.8854971434       -2.3320812121        0.5481985013  W2        723             0.0000000000
      2170       724  TIP3      OH2           -16.3141471434       -1.7106912121       -5.9838114987  W2        724             0.0000000000
      2171       724  TIP3      H1            -17.0460471434       -1.4823212121       -5.4107514987  W2        724             0.0000000000
      2172       724  TIP3      H2            -15.8669271434       -2.4244212121       -5.5290614987  W2        724             0.0000000000
      2173       725  TIP3      OH2           -16.4167971434       -3.5364312121        3.0838885013  W2        725             0.0000000000
      2174       725  TIP3      H1            -16.3368871434       -2.7729912121        3.6557385013  W2        725             0.0000000000
      2175       725  TIP3      H2            -17.0180271434       -3.2571912121        2.3933985013  W2        725             0.0000000000
      2176       726  TIP3      OH2           -24.6687771434       -1.0800712121       -4.1013114987  W2        726             0.0000000000
      2177       726  TIP3      H1            -24.9992571434       -1.4507312121       -4.9196114987  W2        726             0.0000000000
      2178       726  TIP3      H2            -24.0803671434       -1.7506712121       -3.7544814987  W2        726             0.0000000000
      2179       727  TIP3      OH2           -23.3020271434        2.3479887879       -1.4200914987  W2        727             0.0000000000
      2180       727  TIP3      H1            -23.3968971434        1.7692987879       -2.1766314987  W2        727             0.0000000000
      2181       727  TIP3      H2            -22.5726671434        1.9765587879       -0.9238114987  W2        727             0.0000000000
      2182       728  TIP3      OH2           -24.3022271434       -2.3115112121       -0.4678114987  W2        728             0.0000000000
      2183       728  TIP3      H1            -23.7369771434       -2.1900912121       -1.2306914987  W2        728             0.0000000000
      2184       728  TIP3      H2            -23.9833371434       -1.6740112121        0.1710385013  W2        728             0.0000000000
      2185       729  TIP3      OH2           -17.9930071434        3.1916787879        0.2662385013  W2        729             0.0000000000
      2186       729  TIP3      H1            -18.2333471434        3.8539887879        0.9141585013  W2        729             0.0000000000
      2187       729  TIP3      H2            -18.1911871434        2.3571987879        0.6911985013  W2        729             0.0000000000
      2188       730  TIP3      OH2           -23.4221571434        2.0877587879        4.2493785013  W2        730             0.0000000000
      2189       730  TIP3      H1            -23.7334071434        2.8700787879        4.7046985013  W2        730             0.0000000000
      2190       730  TIP3      H2            -24.0721371434        1.9346687879        3.5635785013  W2        730             0.0000000000
      2191       731  TIP3      OH2           -17.4431971434       -2.5484012121       -8.2986914987  W2        731             0.0000000000
      2192       731  TIP3      H1            -16.8636471434       -2.3983712121       -7.5518014987  W2        731             0.0000000000
      2193       731  TIP3      H2            -17.0291971434       -2.0776612121       -9.0220514987  W2        731             0.0000000000
      2194       732  TIP3      OH2           -26.5021671434       -1.7141312121        3.4779485013  W2        732             0.0000000000
      2195       732  TIP3      H1            -26.4318471434       -1.0634512121        4.1764485013  W2        732             0.0000000000
      2196       732  TIP3      H2            -27.3929471434       -1.6113812121        3.1430385013  W2        732             0.0000000000
      2197       733  TIP3      OH2           -19.7167071434        4.1884487879       -4.8633814987  W2        733             0.0000000000
      2198       733  TIP3      H1            -19.2429471434        4.4840787879       -4.0859614987  W2        733             0.0000000000
      2199       733  TIP3      H2            -20.2797771434        4.9266087879       -5.0964214987  W2        733             0.0000000000
      2200       734  TIP3      OH2           -25.1825671434        4.1592587879        5.0127585013  W2        734             0.0000000000
      2201       734  TIP3      H1            -25.1750371434        4.0232287879        4.0653085013  W2        734             0.0000000000
      2202       734  TIP3      H2            -26.0985271434        4.0420687879        5.2647585013  W2        734             0.0000000000
      2203       735  TIP3      OH2           -13.7443571434      -10.7983612121       -8.4857214987  W2        735             0.0000000000
      2204       735  TIP3      H1            -14.6442871434      -10.6594612121       -8.1906614987  W2        735             0.0000000000
      2205       735  TIP3      H2            -13.4925171434       -9.9669012121       -8.8875514987  W2        735             0.0000000000
      2206       736  TIP3      OH2           -25.6785071434       -2.0106412121       -6.5120314987  W2        736             0.0000000000
      2207       736  TIP3      H1            -25.9703771434       -1.2424712121       -7.0029014987  W2        736             0.0000000000
      2208       736  TIP3      H2            -26.3529871434       -2.6700212121       -6.6748914987  W2        736             0.0000000000
      2209       737  TIP3      OH2           -12.5552171434        3.5678787879      -10.1093314987  W2        737             0.0000000000
      2210       737  TIP3      H1            -12.4818671434        4.5068987879       -9.9388014987  W2        737             0.0000000000
      2211       737  TIP3      H2            -11.6497071434        3.2627387879      -10.1656014987  W2        737             0.0000000000
      2212       738  TIP3      OH2           -29.5854971434        0.3522787879        2.3029485013  W2        738             0.0000000000
      2213       738  TIP3      H1            -30.0866571434        0.3242187879        1.4879185013  W2        738             0.0000000000
      2214       738  TIP3      H2            -29.5801271434       -0.5534012121        2.6126785013  W2        738             0.0000000000
      2215       739  TIP3      OH2           -29.8352271434        3.1326587879       -0.8130314987  W2        739             0.0000000000
      2216       739  TIP3      H1            -28.8891671434        2.9883587879       -0.8320814987  W2        739             0.0000000000
      2217       739  TIP3      H2            -29.9475971434        3.9169387879       -0.2759114987  W2        739             0.0000000000
      2218       740  TIP3      OH2           -11.6373771434        3.7986287879        4.8693385013  W2        740             0.0000000000
      2219       740  TIP3      H1            -11.6866971434        2.8434387879        4.8320985013  W2        740             0.0000000000
      2220       740  TIP3      H2            -12.4641471434        4.0661587879        5.2707185013  W2        740             0.0000000000
      2221       741  TIP3      OH2           -20.6589771434        3.3725487879        3.7454785013  W2        741             0.0000000000
      2222       741  TIP3      H1            -20.5715171434        4.1990087879        4.2203885013  W2        741             0.0000000000
      2223       741  TIP3      H2            -21.5224671434        3.0429287879        3.9944085013  W2        741             0.0000000000
      2224       742  TIP3      OH2           -20.2443971434        7.1449187879       -6.4484614987  W2        742             0.0000000000
      2225       742  TIP3      H1            -20.3197971434        7.0236387879       -7.3949414987  W2        742             0.0000000000
      2226       742  TIP3      H2            -20.2115271434        8.0941887879       -6.3300014987  W2        742             0.0000000000
      2227       743  TIP3      OH2           -26.5910171434        5.9336187879       -4.6675614987  W2        743             0.0000000000
      2228       743  TIP3      H1            -26.4389771434        5.5856587879       -3.7889114987  W2        743             0.0000000000
      2229       743  TIP3      H2            -27.4419771434        5.5773487879       -4.9228414987  W2        743             0.0000000000
      2230       744  TIP3      OH2           -17.1427971434        6.2989387879       -9.4462214987  W2        744             0.0000000000
      2231       744  TIP3      H1            -16.7679571434        5.5545487879       -9.9169614987  W2        744             0.0000000000
      2232       744  TIP3      H2            -17.1384271434        6.0289987879       -8.5278914987  W2        744             0.0000000000
      2233       745  TIP3      OH2           -17.4739871434        6.2246487879       -6.6970014987  W2        745             0.0000000000
      2234       745  TIP3      H1            -18.4090071434        6.3248387879       -6.5183014987  W2        745             0.0000000000
      2235       745  TIP3      H2            -17.1937971434        5.5152487879       -6.1186814987  W2        745             0.0000000000
      2236       746  TIP3      OH2           -14.4853971434       -4.7081212121        5.3495585013  W2        746             0.0000000000
      2237       746  TIP3      H1            -14.8927171434       -4.2275612121        4.6288885013  W2        746             0.0000000000
      2238       746  TIP3      H2            -14.4448271434       -5.6135212121        5.0416385013  W2        746             0.0000000000
      2239       747  TIP3      OH2           -27.3364471434        1.6758187879        3.3462285013  W2        747             0.0000000000
      2240       747  TIP3      H1            -27.1203171434        1.3143787879        4.2058085013  W2        747             0.0000000000
      2241       747  TIP3      H2            -28.1919771434        1.3011987879        3.1365785013  W2        747             0.0000000000
      2242       748  TIP3      OH2           -24.7176471434       -9.8541312121       -0.6583514987  W2        748             0.0000000000
      2243       748  TIP3      H1            -25.5792771434       -9.9413112121       -1.0660614987  W2        748             0.0000000000
      2244       748  TIP3      H2            -24.7400771434       -8.9981212121       -0.2305914987  W2        748             0.0000000000
      2245       749  TIP3      OH2           -20.0548671434      -10.1320912121        2.7163485013  W2        749             0.0000000000
      2246       749  TIP3      H1            -19.6345571434      -10.5473812121        3.4694085013  W2        749             0.0000000000
      2247       749  TIP3      H2            -20.9879071434      -10.3107612121        2.8335485013  W2        749             0.0000000000
      2248       750  TIP3      OH2           -16.7283771434       -6.3765712121        3.5697985013  W2        750             0.0000000000
      2249       750  TIP3      H1            -17.2424271434       -6.5023512121        4.3673985013  W2        750             0.0000000000
      2250       750  TIP3      H2            -16.8839071434       -5.4642612121        3.3254185013  W2        750             0.0000000000
      2251       751  TIP3      OH2           -15.9658871434       -1.5155712121      -10.6689014987  W2        751             0.0000000000
      2252       751  TIP3      H1            -15.9238071434       -1.7381812121      -11.5989014987  W2        751             0.0000000000
      2253       751  TIP3      H2            -15.1166771434       -1.1168612121      -10.4789114987  W2        751             0.0000000000
      2254       752  TIP3      OH2           -20.3931371434       -7.6397512121       -9.9985714987  W2        752             0.0000000000
      2255       752  TIP3      H1            -20.6466571434       -7.6205912121       -9.0757614987  W2        752             0.0000000000
      2256       752  TIP3      H2            -20.6499271434       -8.5112112121      -10.2999514987  W2        752             0.0000000000
      2257       753  TIP3      OH2           -24.6266371434       -4.8886812121        0.4366685013  W2        753             0.0000000000
      2258       753  TIP3      H1            -25.2684271434       -4.9289512121        1.1456785013  W2        753             0.0000000000
      2259       753  TIP3      H2            -24.5894371434       -3.9622112121        0.1989685013  W2        753             0.0000000000
      2260       754  TIP3      OH2           -24.6297271434       -4.6676712121       -4.6513314987  W2        754             0.0000000000
      2261       754  TIP3      H1            -25.5224371434       -5.0080612121       -4.7099514987  W2        754             0.0000000000
      2262       754  TIP3      H2            -24.1790671434       -5.0445812121       -5.4070114987  W2        754             0.0000000000
      2263       755  TIP3      OH2           -19.0941771434       -4.2516412121       -5.8342514987  W2        755             0.0000000000
      2264       755  TIP3      H1            -19.5031471434       -3.4367812121       -6.1257714987  W2        755             0.0000000000
      2265       755  TIP3      H2            -18.3735571434       -4.3916312121       -6.4485414987  W2        755             0.0000000000
      2266       756  TIP3      OH2           -19.9920171434       -4.0760012121        5.6538185013  W2        756             0.0000000000
      2267       756  TIP3      H1            -20.5546371434       -4.7808412121        5.9745985013  W2        756             0.0000000000
      2268       756  TIP3      H2            -19.1656771434       -4.1968112121        6.1215785013  W2        756             0.0000000000
      2269       757  TIP3      OH2           -18.0894071434       -4.8056012121       -3.0202814987  W2        757             0.0000000000
      2270       757  TIP3      H1            -18.2849571434       -4.1999212121       -3.7352214987  W2        757             0.0000000000
      2271       757  TIP3      H2            -17.9081471434       -5.6390812121       -3.4546514987  W2        757             0.0000000000
      2272       758  TIP3      OH2           -26.8765871434       -4.5683312121        2.3038685013  W2        758             0.0000000000
      2273       758  TIP3      H1            -26.9146471434       -4.1681712121        3.1725785013  W2        758             0.0000000000
      2274       758  TIP3      H2            -27.3674771434       -5.3850912121        2.3941585013  W2        758             0.0000000000
      2275       759  TIP3      OH2           -23.5108471434       -7.1941012121      -10.8975314987  W2        759             0.0000000000
      2276       759  TIP3      H1            -23.9417771434       -7.6390912121      -10.1677914987  W2        759             0.0000000000
      2277       759  TIP3      H2            -24.2289771434       -6.8224712121      -11.4097814987  W2        759             0.0000000000
      2278       760  TIP3      OH2           -30.2685071434       -7.4521512121       -3.8456614987  W2        760             0.0000000000
      2279       760  TIP3      H1            -29.6377371434       -7.4809412121       -3.1262714987  W2        760             0.0000000000
      2280       760  TIP3      H2            -29.8190771434       -7.8772812121       -4.5760714987  W2        760             0.0000000000
      2281       761  TIP3      OH2           -28.9942971434       -6.7059512121       -8.4216214987  W2        761             0.0000000000
      2282       761  TIP3      H1            -28.5201271434       -6.1149612121       -9.0065314987  W2        761             0.0000000000
      2283       761  TIP3      H2            -29.7116571434       -6.1756612121       -8.0746114987  W2        761             0.0000000000
      2284       762  TIP3      OH2           -18.8254871434       -3.1674712121        1.6509585013  W2        762             0.0000000000
      2285       762  TIP3      H1            -18.5020071434       -3.7985012121        1.0080085013  W2        762             0.0000000000
      2286       762  TIP3      H2            -19.2655571434       -3.7022512121        2.3116985013  W2        762             0.0000000000
      2287       763  TIP3      OH2           -22.0481971434       -7.2399212121       -3.5649214987  W2        763             0.0000000000
      2288       763  TIP3      H1            -22.9590871434       -7.1832412121       -3.2763214987  W2        763             0.0000000000
      2289       763  TIP3      H2            -21.5429071434       -7.3003712121       -2.7542014987  W2        763             0.0000000000
      2290       764  TIP3      OH2           -27.2198571434       -5.6112912121       -4.7381614987  W2        764             0.0000000000
      2291       764  TIP3      H1            -28.1090571434       -5.5117412121       -5.0782014987  W2        764             0.0000000000
      2292       764  TIP3      H2            -26.9233671434       -6.4529912121       -5.0843714987  W2        764             0.0000000000
      2293       765  TIP3      OH2           -23.5666771434       -5.6110312121       -7.0817014987  W2        765             0.0000000000
      2294       765  TIP3      H1            -22.6351271434       -5.4820312121       -6.9033914987  W2        765             0.0000000000
      2295       765  TIP3      H2            -23.7816471434       -4.9416012121       -7.7312314987  W2        765             0.0000000000
      2296       766  TIP3      OH2           -17.6430071434       -8.0052912121       -0.3007414987  W2        766             0.0000000000
      2297       766  TIP3      H1            -18.3198471434       -7.8739812121        0.3632285013  W2        766             0.0000000000
      2298       766  TIP3      H2            -18.1285171434       -8.1603412121       -1.1109714987  W2        766             0.0000000000
      2299       767  TIP3      OH2           -24.8926571434       -4.4168112121       -9.5150914987  W2        767             0.0000000000
      2300       767  TIP3      H1            -25.4351471434       -4.7964312121      -10.2063314987  W2        767             0.0000000000
      2301       767  TIP3      H2            -24.0591671434       -4.2223412121       -9.9436814987  W2        767             0.0000000000
      2302       768  TIP3      OH2           -14.3554971434        7.6662487879        5.9760185013  W2        768             0.0000000000
      2303       768  TIP3      H1            -14.1556271434        8.0904387879        5.1415485013  W2        768             0.0000000000
      2304       768  TIP3      H2            -13.7001271434        8.0100687879        6.5830585013  W2        768             0.0000000000
      2305       769  TIP3      OH2           -26.7575171434        0.1403787879        5.5840685013  W2        769             0.0000000000
      2306       769  TIP3      H1            -26.0252771434        0.3949687879        6.1455185013  W2        769             0.0000000000
      2307       769  TIP3      H2            -27.5376471434        0.3449187879        6.0996085013  W2        769             0.0000000000
      2308       770  TIP3      OH2           -20.7282271434       -4.4526212121       -1.6779614987  W2        770             0.0000000000
      2309       770  TIP3      H1            -20.1638871434       -4.9989612121       -2.2250014987  W2        770             0.0000000000
      2310       770  TIP3      H2            -20.8758871434       -4.9744312121       -0.8892014987  W2        770             0.0000000000
      2311       771  TIP3      OH2           -25.7262571434       -8.3160112121       -5.2594814987  W2        771             0.0000000000
      2312       771  TIP3      H1            -26.0433071434       -9.2184812121       -5.2949414987  W2        771             0.0000000000
      2313       771  TIP3      H2            -24.9448471434       -8.3142712121       -5.8123214987  W2        771             0.0000000000
      2314       772  TIP3      OH2           -22.1016371434       -6.0640112121        0.7360785013  W2        772             0.0000000000
      2315       772  TIP3      H1            -22.9371071434       -5.6100612121        0.8463185013  W2        772             0.0000000000
      2316       772  TIP3      H2            -21.5775771434       -5.7881612121        1.4880685013  W2        772             0.0000000000
      2317       773  TIP3      OH2           -21.5573771434        0.1487587879       -7.5792814987  W2        773             0.0000000000
      2318       773  TIP3      H1            -22.3022771434       -0.3587112121       -7.9014914987  W2        773             0.0000000000
      2319       773  TIP3      H2            -21.6916571434        0.1975587879       -6.6328014987  W2        773             0.0000000000
      2320       774  TIP3      OH2           -14.4074871434       -0.7184212121        1.2074785013  W2        774             0.0000000000
      2321       774  TIP3      H1            -13.7656071434       -0.2617912121        0.6636985013  W2        774             0.0000000000
      2322       774  TIP3      H2            -15.2377971434       -0.6051812121        0.7448885013  W2        774             0.0000000000
      2323       775  TIP3      OH2           -17.6596971434       -7.0372512121       -9.3800214987  W2        775             0.0000000000
      2324       775  TIP3      H1            -18.5982771434       -6.9256912121       -9.5311414987  W2        775             0.0000000000
      2325       775  TIP3      H2            -17.3624871434       -6.1805612121       -9.0734514987  W2        775             0.0000000000
      2326       776  TIP3      OH2           -20.0381671434        0.3330887879        3.6576285013  W2        776             0.0000000000
      2327       776  TIP3      H1            -20.3835571434       -0.0486712121        4.4645885013  W2        776             0.0000000000
      2328       776  TIP3      H2            -20.2381571434        1.2664487879        3.7289185013  W2        776             0.0000000000
      2329       777  TIP3      OH2           -16.9413471434       -5.1699812121       -7.7192814987  W2        777             0.0000000000
      2330       777  TIP3      H1            -16.0494471434       -5.3074812121       -7.4001614987  W2        777             0.0000000000
      2331       777  TIP3      H2            -16.8849871434       -4.3793712121       -8.2559314987  W2        777             0.0000000000
      2332       778  TIP3      OH2           -26.4325471434       -0.5562412121       -1.8094914987  W2        778             0.0000000000
      2333       778  TIP3      H1            -25.6878271434       -0.5586712121       -2.4108414987  W2        778             0.0000000000
      2334       778  TIP3      H2            -26.3548871434       -1.3798612121       -1.3279814987  W2        778             0.0000000000
      2335       779  TIP3      OH2           -19.4319671434        1.6071887879       -8.5538214987  W2        779             0.0000000000
      2336       779  TIP3      H1            -19.7271271434        2.4339787879       -8.1723414987  W2        779             0.0000000000
      2337       779  TIP3      H2            -20.1349671434        0.9878787879       -8.3576814987  W2        779             0.0000000000
      2338       780  TIP3      OH2           -29.4245771434       -2.0955512121        3.5053585013  W2        780             0.0000000000
      2339       780  TIP3      H1            -29.2017171434       -2.5135912121        4.3371085013  W2        780             0.0000000000
      2340       780  TIP3      H2            -30.0265671434       -2.7080512121        3.0826385013  W2        780             0.0000000000
      2341       781  TIP3      OH2           -22.4080871434       -2.5785612121        5.7183285013  W2        781             0.0000000000
      2342       781  TIP3      H1            -22.7040071434       -2.7442612121        4.8232385013  W2        781             0.0000000000
      2343       781  TIP3      H2            -21.4765671434       -2.7985312121        5.7077185013  W2        781             0.0000000000
      2344       782  TIP3      OH2           -17.7878071434        2.7946387879        3.6081285013  W2        782             0.0000000000
      2345       782  TIP3      H1            -18.6883771434        2.9778987879        3.3405185013  W2        782             0.0000000000
      2346       782  TIP3      H2            -17.7536971434        3.0535687879        4.5290085013  W2        782             0.0000000000
      2347       783  TIP3      OH2           -12.0564771434       -4.9605712121       -8.0246114987  W2        783             0.0000000000
      2348       783  TIP3      H1            -12.6108471434       -5.3567712121       -8.6968614987  W2        783             0.0000000000
      2349       783  TIP3      H2            -11.9561171434       -4.0500512121       -8.3022814987  W2        783             0.0000000000
      2350       784  TIP3      OH2           -12.0932771434        0.8395987879        4.8125385013  W2        784             0.0000000000
      2351       784  TIP3      H1            -12.9444271434        1.0779787879        4.4451785013  W2        784             0.0000000000
      2352       784  TIP3      H2            -11.5029371434        0.8229187879        4.0592485013  W2        784             0.0000000000
      2353       785  TIP3      OH2           -13.7613071434        3.8254687879       -7.5594014987  W2        785             0.0000000000
      2354       785  TIP3      H1            -14.1341971434        2.9998487879       -7.2503414987  W2        785             0.0000000000
      2355       785  TIP3      H2            -13.4839571434        3.6424087879       -8.4570614987  W2        785             0.0000000000
      2356       786  TIP3      OH2           -16.6009171434       -1.3665812121       -0.5382114987  W2        786             0.0000000000
      2357       786  TIP3      H1            -17.5292271434       -1.5983912121       -0.5652814987  W2        786             0.0000000000
      2358       786  TIP3      H2            -16.1498071434       -2.1436012121       -0.8683314987  W2        786             0.0000000000
      2359       787  TIP3      OH2           -24.0576071434        2.9615787879       -4.4053414987  W2        787             0.0000000000
      2360       787  TIP3      H1            -23.5303871434        3.7350187879       -4.6054614987  W2        787             0.0000000000
      2361       787  TIP3      H2            -24.9377571434        3.1864987879       -4.7069414987  W2        787             0.0000000000
      2362       788  TIP3      OH2           -28.3028371434       -2.1760112121       -9.8181014987  W2        788             0.0000000000
      2363       788  TIP3      H1            -27.6868471434       -1.5492912121       -9.4386214987  W2        788             0.0000000000
      2364       788  TIP3      H2            -29.1645771434       -1.8600312121       -9.5464514987  W2        788             0.0000000000
      2365       789  TIP3      OH2           -22.6303771434        0.6245687879       -4.8289114987  W2        789             0.0000000000
      2366       789  TIP3      H1            -22.8713771434        1.5500087879       -4.7873814987  W2        789             0.0000000000
      2367       789  TIP3      H2            -23.3710171434        0.1656987879       -4.4325214987  W2        789             0.0000000000
      2368       790  TIP3      OH2           -22.1157171434        4.7739287879        1.4861985013  W2        790             0.0000000000
      2369       790  TIP3      H1            -21.7532471434        5.6284887879        1.2526385013  W2        790             0.0000000000
      2370       790  TIP3      H2            -21.5841971434        4.4820887879        2.2268285013  W2        790             0.0000000000
      2371       791  TIP3      OH2           -23.9472971434        5.6463287879       -5.2836914987  W2        791             0.0000000000
      2372       791  TIP3      H1            -24.8972471434        5.7520687879       -5.2323614987  W2        791             0.0000000000
      2373       791  TIP3      H2            -23.5954871434        6.4670687879       -4.9389414987  W2        791             0.0000000000
      2374       792  TIP3      OH2           -18.5716371434        0.8729987879        1.1867585013  W2        792             0.0000000000
      2375       792  TIP3      H1            -18.9975071434        0.6451687879        2.0131585013  W2        792             0.0000000000
      2376       792  TIP3      H2            -17.9910571434        0.1341787879        1.0042885013  W2        792             0.0000000000
      2377       793  TIP3      OH2           -16.3687471434        1.8020487879       -9.7393414987  W2        793             0.0000000000
      2378       793  TIP3      H1            -16.0154371434        1.4220287879       -8.9349914987  W2        793             0.0000000000
      2379       793  TIP3      H2            -17.3173971434        1.7085287879       -9.6524114987  W2        793             0.0000000000
      2380       794  TIP3      OH2           -15.9132171434        5.4249487879        3.6562385013  W2        794             0.0000000000
      2381       794  TIP3      H1            -16.5148971434        4.8692387879        3.1608685013  W2        794             0.0000000000
      2382       794  TIP3      H2            -15.6318471434        6.0919287879        3.0299785013  W2        794             0.0000000000
      2383       795  TIP3      OH2           -11.8653071434        6.2812987879       -9.5383214987  W2        795             0.0000000000
      2384       795  TIP3      H1            -11.1215171434        6.8673487879       -9.6781614987  W2        795             0.0000000000
      2385       795  TIP3      H2            -12.5594971434        6.8498787879       -9.2050814987  W2        795             0.0000000000
      2386       796  TIP3      OH2           -27.7906271434       -7.3422812121        3.0634985013  W2        796             0.0000000000
      2387       796  TIP3      H1            -28.6833971434       -7.0037412121        2.9958985013  W2        796             0.0000000000
      2388       796  TIP3      H2            -27.8893471434       -8.1976712121        3.4815785013  W2        796             0.0000000000
      2389       797  TIP3      OH2           -15.5028171434        0.4742487879       -7.5125514987  W2        797             0.0000000000
      2390       797  TIP3      H1            -15.7800571434       -0.2538212121       -6.9564414987  W2        797             0.0000000000
      2391       797  TIP3      H2            -14.5755171434        0.5934487879       -7.3072914987  W2        797             0.0000000000
      2392       798  TIP3      OH2           -28.1394271434        4.4621587879        1.4984385013  W2        798             0.0000000000
      2393       798  TIP3      H1            -27.9223971434        3.5303987879        1.4674085013  W2        798             0.0000000000
      2394       798  TIP3      H2            -27.8930771434        4.7366587879        2.3817185013  W2        798             0.0000000000
      2395       799  TIP3      OH2           -22.2779671434        2.9136587879      -11.2923414987  W2        799             0.0000000000
      2396       799  TIP3      H1            -22.0389871434        2.1654687879      -11.8394514987  W2        799             0.0000000000
      2397       799  TIP3      H2            -22.5468371434        2.5258287879      -10.4595614987  W2        799             0.0000000000
      2398       800  TIP3      OH2           -23.3409071434        2.4840387879       -8.8360814987  W2        800             0.0000000000
      2399       800  TIP3      H1            -23.1941071434        1.9640187879       -8.0459914987  W2        800             0.0000000000
      2400       800  TIP3      H2            -23.3437371434        3.3907987879       -8.5294914987  W2        800             0.0000000000
      2401       801  TIP3      OH2           -26.8877971434       -0.2636312121       -8.3255414987  W2        801             0.0000000000
      2402       801  TIP3      H1            -27.5738671434        0.0886187879       -7.7585714987  W2        801             0.0000000000
      2403       801  TIP3      H2            -26.3650071434        0.4993287879       -8.5721114987  W2        801             0.0000000000
      2404       802  TIP3      OH2           -19.0562871434       -7.6012512121        1.9533585013  W2        802             0.0000000000
      2405       802  TIP3      H1            -18.3574971434       -7.5273812121        2.6033285013  W2        802             0.0000000000
      2406       802  TIP3      H2            -19.4371471434       -8.4657512121        2.1076485013  W2        802             0.0000000000
      2407       803  TIP3      OH2           -18.2717971434       -7.9490812121       -6.9494114987  W2        803             0.0000000000
      2408       803  TIP3      H1            -18.0519671434       -7.4775412121       -7.7528714987  W2        803             0.0000000000
      2409       803  TIP3      H2            -17.7133971434       -7.5548212121       -6.2793514987  W2        803             0.0000000000
      2410       804  TIP3      OH2           -20.6031871434        4.1813987879       -8.0866614987  W2        804             0.0000000000
      2411       804  TIP3      H1            -21.4195771434        4.6783687879       -8.0342314987  W2        804             0.0000000000
      2412       804  TIP3      H2            -20.0735571434        4.6567487879       -8.7267814987  W2        804             0.0000000000
      2413       805  TIP3      OH2           -21.0718071434       -6.2212012121       -6.1145714987  W2        805             0.0000000000
      2414       805  TIP3      H1            -20.2595471434       -5.7168812121       -6.0684014987  W2        805             0.0000000000
      2415       805  TIP3      H2            -21.3165071434       -6.3662312121       -5.2006114987  W2        805             0.0000000000
      2416       806  TIP3      OH2           -20.5361671434       -5.2349312121        3.0700885013  W2        806             0.0000000000
      2417       806  TIP3      H1            -20.4171371434       -4.6613912121        3.8271285013  W2        806             0.0000000000
      2418       806  TIP3      H2            -19.8807071434       -5.9229912121        3.1848685013  W2        806             0.0000000000
      2419       807  TIP3      OH2           -20.1881371434       -9.1399012121       -5.1764614987  W2        807             0.0000000000
      2420       807  TIP3      H1            -20.5347871434       -8.5228412121       -4.5320314987  W2        807             0.0000000000
      2421       807  TIP3      H2            -19.5294471434       -8.6393312121       -5.6579114987  W2        807             0.0000000000
      2422       808  TIP3      OH2           -23.2648771434        5.2251187879       -8.1049714987  W2        808             0.0000000000
      2423       808  TIP3      H1            -23.1040071434        6.0248687879       -8.6057114987  W2        808             0.0000000000
      2424       808  TIP3      H2            -23.4620971434        5.5317187879       -7.2199114987  W2        808             0.0000000000
      2425       809  TIP3      OH2           -24.5304371434       -8.0769612121       -8.4892114987  W2        809             0.0000000000
      2426       809  TIP3      H1            -24.6139571434       -7.1886512121       -8.1425714987  W2        809             0.0000000000
      2427       809  TIP3      H2            -23.6404071434       -8.3422912121       -8.2575314987  W2        809             0.0000000000
      2428       810  TIP3      OH2           -14.3315871434       -7.3279012121        3.9050585013  W2        810             0.0000000000
      2429       810  TIP3      H1            -15.2480071434       -7.0657312121        3.8174285013  W2        810             0.0000000000
      2430       810  TIP3      H2            -13.9960871434       -7.3310012121        3.0085885013  W2        810             0.0000000000
      2431       811  TIP3      OH2           -15.7294871434       -3.5778012121       -1.9992114987  W2        811             0.0000000000
      2432       811  TIP3      H1            -16.5270471434       -3.9927812121       -2.3277114987  W2        811             0.0000000000
      2433       811  TIP3      H2            -15.2843771434       -4.2684312121       -1.5081614987  W2        811             0.0000000000
      2434       812  TIP3      OH2           -26.2719071434        2.3502587879       -9.4287614987  W2        812             0.0000000000
      2435       812  TIP3      H1            -25.6797571434        3.0497387879       -9.1525214987  W2        812             0.0000000000
      2436       812  TIP3      H2            -25.8126071434        1.9172087879      -10.1483014987  W2        812             0.0000000000
      2437       813  TIP3      OH2           -27.9559871434       -4.9854412121      -10.3128214987  W2        813             0.0000000000
      2438       813  TIP3      H1            -28.0007271434       -4.0461312121      -10.1341214987  W2        813             0.0000000000
      2439       813  TIP3      H2            -28.8436671434       -5.2209512121      -10.5826114987  W2        813             0.0000000000
      2440       814  TIP3      OH2           -14.6430271434        5.6784487879       -0.3768614987  W2        814             0.0000000000
      2441       814  TIP3      H1            -14.7985971434        6.3568887879       -1.0339314987  W2        814             0.0000000000
      2442       814  TIP3      H2            -13.7103871434        5.7503787879       -0.1738014987  W2        814             0.0000000000
      2443       815  TIP3      OH2           -27.1477871434      -10.2037812121       -1.6397214987  W2        815             0.0000000000
      2444       815  TIP3      H1            -27.3768071434      -10.1445312121       -2.5672214987  W2        815             0.0000000000
      2445       815  TIP3      H2            -27.5904471434      -10.9952312121       -1.3333114987  W2        815             0.0000000000
      2446       816  TIP3      OH2           -28.2174571434        3.7369287879       -5.4791414987  W2        816             0.0000000000
      2447       816  TIP3      H1            -29.0495971434        4.2091987879       -5.4520014987  W2        816             0.0000000000
      2448       816  TIP3      H2            -27.6716271434        4.2466887879       -6.0778314987  W2        816             0.0000000000
      2449       817  TIP3      OH2           -28.9290871434        6.3492987879        5.8506585013  W2        817             0.0000000000
      2450       817  TIP3      H1            -28.3888671434        6.1326987879        6.6105785013  W2        817             0.0000000000
      2451       817  TIP3      H2            -29.4102871434        5.5438987879        5.6609085013  W2        817             0.0000000000
      2452       818  TIP3      OH2           -24.3317471434        5.2687387879        7.4710785013  W2        818             0.0000000000
      2453       818  TIP3      H1            -23.5640271434        4.8098187879        7.8119985013  W2        818             0.0000000000
      2454       818  TIP3      H2            -24.3531271434        5.0427187879        6.5411985013  W2        818             0.0000000000
      2455       819  TIP3      OH2           -20.2397871434        4.7767987879      -11.1537414987  W2        819             0.0000000000
      2456       819  TIP3      H1            -20.8836871434        4.1456587879      -10.8323714987  W2        819             0.0000000000
      2457       819  TIP3      H2            -19.4779571434        4.2455987879      -11.3853914987  W2        819             0.0000000000
      2458       820  TIP3      OH2           -17.7548771434        3.6488487879        6.2002285013  W2        820             0.0000000000
      2459       820  TIP3      H1            -18.1059271434        2.7921487879        6.4432685013  W2        820             0.0000000000
      2460       820  TIP3      H2            -17.0285571434        3.7915187879        6.8071285013  W2        820             0.0000000000
      2461       821  TIP3      OH2           -15.6354971434        4.5937887879      -10.9199414987  W2        821             0.0000000000
      2462       821  TIP3      H1            -15.3524571434        3.7993087879      -10.4672514987  W2        821             0.0000000000
      2463       821  TIP3      H2            -14.8957071434        4.8268887879      -11.4808314987  W2        821             0.0000000000
      2464       822  TIP3      OH2           -29.0221371434        0.1597087879        6.8050885013  W2        822             0.0000000000
      2465       822  TIP3      H1            -28.8780871434       -0.7422212121        6.5187585013  W2        822             0.0000000000
      2466       822  TIP3      H2            -29.7943971434        0.4459187879        6.3173185013  W2        822             0.0000000000
      2467       823  TIP3      OH2           -24.6807671434        0.5032787879      -11.0624514987  W2        823             0.0000000000
      2468       823  TIP3      H1            -24.6163571434       -0.2907612121      -10.5318114987  W2        823             0.0000000000
      2469       823  TIP3      H2            -24.0278471434        0.3845587879      -11.7522514987  W2        823             0.0000000000
      2470       824  TIP3      OH2           -22.3665271434        0.1295187879        6.2377285013  W2        824             0.0000000000
      2471       824  TIP3      H1            -22.6951471434        0.4003287879        5.3804685013  W2        824             0.0000000000
      2472       824  TIP3      H2            -22.2147071434       -0.8115012121        6.1502285013  W2        824             0.0000000000
      2473       825  TIP3      OH2           -19.3284271434        1.5504487879      -11.3266514987  W2        825             0.0000000000
      2474       825  TIP3      H1            -19.5970171434        1.7306587879      -10.4257614987  W2        825             0.0000000000
      2475       825  TIP3      H2            -19.5348671434        0.6250687879      -11.4580714987  W2        825             0.0000000000
      2476       826  TIP3      OH2           -16.6320071434        0.0452487879        3.6209585013  W2        826             0.0000000000
      2477       826  TIP3      H1            -15.8865271434        0.6336187879        3.5013585013  W2        826             0.0000000000
      2478       826  TIP3      H2            -17.3893271434        0.6272187879        3.6842685013  W2        826             0.0000000000
      2479       827  TIP3      OH2           -28.1894871434       -2.6399612121        6.2250185013  W2        827             0.0000000000
      2480       827  TIP3      H1            -27.7813671434       -3.4973012121        6.1040785013  W2        827             0.0000000000
      2481       827  TIP3      H2            -28.4497271434       -2.6258312121        7.1460485013  W2        827             0.0000000000
      2482       828  TIP3      OH2           -23.5313871434       -1.5241012121       -8.7566514987  W2        828             0.0000000000
      2483       828  TIP3      H1            -23.9911871434       -2.0082712121       -8.0708014987  W2        828             0.0000000000
      2484       828  TIP3      H2            -23.2765171434       -2.1925612121       -9.3926014987  W2        828             0.0000000000
      2485       829  TIP3      OH2           -24.2424571434       -3.6313912121        3.5993085013  W2        829             0.0000000000
      2486       829  TIP3      H1            -24.8608471434       -2.9567312121        3.8797785013  W2        829             0.0000000000
      2487       829  TIP3      H2            -23.8983371434       -3.3100012121        2.7659285013  W2        829             0.0000000000
      2488       830  TIP3      OH2           -22.4603471434       -3.2809212121      -10.4943314987  W2        830             0.0000000000
      2489       830  TIP3      H1            -22.6408471434       -3.4358012121      -11.4215014987  W2        830             0.0000000000
      2490       830  TIP3      H2            -21.5102971434       -3.1730512121      -10.4495414987  W2        830             0.0000000000
      2491       831  TIP3      OH2           -19.2226371434       -1.1598612121        6.8767885013  W2        831             0.0000000000
      2492       831  TIP3      H1            -18.2695171434       -1.0759512121        6.8493885013  W2        831             0.0000000000
      2493       831  TIP3      H2            -19.3831771434       -1.8716812121        7.4962785013  W2        831             0.0000000000
      2494       832  TIP3      OH2           -13.0705171434       -0.9265012121      -11.0485214987  W2        832             0.0000000000
      2495       832  TIP3      H1            -13.3440371434       -1.3509512121      -11.8616914987  W2        832             0.0000000000
      2496       832  TIP3      H2            -13.0311071434        0.0049487879      -11.2654814987  W2        832             0.0000000000
      2497       833  TIP3      OH2           -23.9030871434       -6.2763112121        4.6816185013  W2        833             0.0000000000
      2498       833  TIP3      H1            -23.7529971434       -7.0051812121        4.0795885013  W2        833             0.0000000000
      2499       833  TIP3      H2            -23.9008471434       -5.4991412121        4.1228385013  W2        833             0.0000000000
      2500       834  TIP3      OH2           -23.4905171434       -7.9067312121        2.1743585013  W2        834             0.0000000000
      2501       834  TIP3      H1            -22.9547671434       -7.4550612121        1.5222885013  W2        834             0.0000000000
      2502       834  TIP3      H2            -24.3425571434       -8.0147512121        1.7517685013  W2        834             0.0000000000
      2503       835  TIP3      OH2           -21.9086771434       -2.4671112121        2.4138785013  W2        835             0.0000000000
      2504       835  TIP3      H1            -21.1581971434       -2.6233612121        1.8406585013  W2        835             0.0000000000
      2505       835  TIP3      H2            -22.2478471434       -1.6154512121        2.1384285013  W2        835             0.0000000000
      2506       836  TIP3      OH2           -17.4930571434       -4.6519312121        7.4424085013  W2        836             0.0000000000
      2507       836  TIP3      H1            -17.3009271434       -5.5829912121        7.3308585013  W2        836             0.0000000000
      2508       836  TIP3      H2            -16.6354271434       -4.2269812121        7.4319485013  W2        836             0.0000000000
      2509       837  TIP3      OH2           -16.1763371434       -1.8634112121        5.5196785013  W2        837             0.0000000000
      2510       837  TIP3      H1            -16.4578371434       -1.1539512121        4.9420585013  W2        837             0.0000000000
      2511       837  TIP3      H2            -15.2339071434       -1.9361112121        5.3687985013  W2        837             0.0000000000
      2512       838  TIP3      OH2           -25.4244571434       -5.0779612121        6.5931785013  W2        838             0.0000000000
      2513       838  TIP3      H1            -26.1915571434       -5.6104812121        6.3829385013  W2        838             0.0000000000
      2514       838  TIP3      H2            -24.7455571434       -5.3879212121        5.9938085013  W2        838             0.0000000000
      2515       839  TIP3      OH2           -22.6849671434      -10.4501612121        2.6057185013  W2        839             0.0000000000
      2516       839  TIP3      H1            -22.7830071434       -9.5038412121        2.5003385013  W2        839             0.0000000000
      2517       839  TIP3      H2            -23.4273471434      -10.8227812121        2.1300685013  W2        839             0.0000000000
      2518       840  TIP3      OH2           -21.4209171434       -6.1286212121        6.1695585013  W2        840             0.0000000000
      2519       840  TIP3      H1            -21.6563771434       -6.3479512121        7.0710485013  W2        840             0.0000000000
      2520       840  TIP3      H2            -22.2042271434       -6.3355012121        5.6598085013  W2        840             0.0000000000
      2521       841  TIP3      OH2           -18.7052571434       -7.0012712121        5.2449085013  W2        841             0.0000000000
      2522       841  TIP3      H1            -19.6527171434       -6.9693012121        5.3772385013  W2        841             0.0000000000
      2523       841  TIP3      H2            -18.3925871434       -7.6265612121        5.8987285013  W2        841             0.0000000000
      2524       842  TIP3      OH2           -17.0711071434       -8.3671612121        7.2500985013  W2        842             0.0000000000
      2525       842  TIP3      H1            -17.1679271434       -9.3194312121        7.2442885013  W2        842             0.0000000000
      2526       842  TIP3      H2            -17.3927971434       -8.0984812121        8.1106485013  W2        842             0.0000000000
      2527       843  TIP3      OH2           -27.2441771434       -7.1575812121        6.2976485013  W2        843             0.0000000000
      2528       843  TIP3      H1            -27.0324371434       -7.8639712121        5.6873985013  W2        843             0.0000000000
      2529       843  TIP3      H2            -27.3554271434       -7.5949812121        7.1417685013  W2        843             0.0000000000
      2530       844  TIP3      OH2           -22.4631571434      -11.1564212121        5.2769985013  W2        844             0.0000000000
      2531       844  TIP3      H1            -21.7513171434      -11.7962012121        5.2629085013  W2        844             0.0000000000
      2532       844  TIP3      H2            -22.5641171434      -10.8895912121        4.3633085013  W2        844             0.0000000000
      2533       845  TIP3      OH2           -22.1094071434       -9.4735812121        7.3306285013  W2        845             0.0000000000
      2534       845  TIP3      H1            -22.2411871434       -9.9492012121        6.5104785013  W2        845             0.0000000000
      2535       845  TIP3      H2            -22.7086671434       -8.7292212121        7.2753385013  W2        845             0.0000000000
      2536       846  TIP3      OH2           -22.5631771434        7.4094487879       -9.4929714987  W2        846             0.0000000000
      2537       846  TIP3      H1            -21.6301071434        7.5673187879       -9.3491314987  W2        846             0.0000000000
      2538       846  TIP3      H2            -22.8272971434        8.0847487879      -10.1178214987  W2        846             0.0000000000
      2539       847  TIP3      OH2           -28.9946871434        2.0458287879      -10.0101614987  W2        847             0.0000000000
      2540       847  TIP3      H1            -28.0807671434        2.1247187879       -9.7367714987  W2        847             0.0000000000
      2541       847  TIP3      H2            -28.9873771434        1.3587887879      -10.6766014987  W2        847             0.0000000000
      2542       848  TIP3      OH2           -30.3456271434        7.4386787879       -4.9327714987  W2        848             0.0000000000
      2543       848  TIP3      H1            -30.9929171434        6.9768487879       -5.4656514987  W2        848             0.0000000000
      2544       848  TIP3      H2            -29.9911671434        6.7670087879       -4.3501514987  W2        848             0.0000000000
      2545       849  TIP3      OH2           -29.4757071434        5.5193787879       -3.1281514987  W2        849             0.0000000000
      2546       849  TIP3      H1            -29.8100271434        4.6391087879       -2.9561314987  W2        849             0.0000000000
      2547       849  TIP3      H2            -29.2534671434        5.8648787879       -2.2635914987  W2        849             0.0000000000
      2548       850  TIP3      OH2           -11.9272271434        6.3290187879       -0.1476714987  W2        850             0.0000000000
      2549       850  TIP3      H1            -11.9485571434        6.5138587879        0.7912685013  W2        850             0.0000000000
      2550       850  TIP3      H2            -11.2366071434        6.8974187879       -0.4885314987  W2        850             0.0000000000
      2551       851  TIP3      OH2           -12.3639371434        5.8961287879        2.7742385013  W2        851             0.0000000000
      2552       851  TIP3      H1            -12.8510671434        5.1605387879        2.4029785013  W2        851             0.0000000000
      2553       851  TIP3      H2            -11.8146671434        5.5025187879        3.4521785013  W2        851             0.0000000000
      2554       852  TIP3      OH2           -13.9132071434        1.6859387879        7.4122685013  W2        852             0.0000000000
      2555       852  TIP3      H1            -14.7790971434        1.5809087879        7.8064985013  W2        852             0.0000000000
      2556       852  TIP3      H2            -13.5366171434        2.4442687879        7.8587385013  W2        852             0.0000000000
      2557       853  TIP3      OH2           -12.6122371434       -0.0576912121       -7.0734814987  W2        853             0.0000000000
      2558       853  TIP3      H1            -11.7620971434        0.3633987879       -6.9463214987  W2        853             0.0000000000
      2559       853  TIP3      H2            -12.6067271434       -0.7976812121       -6.4663414987  W2        853             0.0000000000
      2560       854  TIP3      OH2           -12.2176771434       -2.0039512121       -5.2499114987  W2        854             0.0000000000
      2561       854  TIP3      H1            -12.9442171434       -2.4836912121       -4.8521514987  W2        854             0.0000000000
      2562       854  TIP3      H2            -11.6363471434       -1.7984812121       -4.5177514987  W2        854             0.0000000000
      2563       855  TIP3      OH2           -12.4585571434        0.7807987879       -0.3021514987  W2        855             0.0000000000
      2564       855  TIP3      H1            -11.6251371434        0.4027987879       -0.5827914987  W2        855             0.0000000000
      2565       855  TIP3      H2            -12.3465271434        1.7239187879       -0.4212414987  W2        855             0.0000000000
      2566       856  TIP3      OH2           -13.9723271434        3.6585487879        2.0046885013  W2        856             0.0000000000
      2567       856  TIP3      H1            -14.6197971434        3.9836987879        2.6302085013  W2        856             0.0000000000
      2568       856  TIP3      H2            -14.4899271434        3.2183187879        1.3305185013  W2        856             0.0000000000
      2569       857  TIP3      OH2           -11.9493671434       -2.1031012121       -8.8587814987  W2        857             0.0000000000
      2570       857  TIP3      H1            -12.4712571434       -1.7466912121       -9.5776914987  W2        857             0.0000000000
      2571       857  TIP3      H2            -11.9824471434       -1.4283212121       -8.1806914987  W2        857             0.0000000000
      2572       858  TIP3      OH2           -13.6004671434       -4.8635412121      -10.3080714987  W2        858             0.0000000000
      2573       858  TIP3      H1            -13.5040271434       -4.1968412121      -10.9881014987  W2        858             0.0000000000
      2574       858  TIP3      H2            -13.7405071434       -5.6789112121      -10.7895214987  W2        858             0.0000000000
      2575       859  TIP3      OH2           -14.4309971434       -3.4833012121       -4.6870414987  W2        859             0.0000000000
      2576       859  TIP3      H1            -14.5811171434       -4.4284412121       -4.7072614987  W2        859             0.0000000000
      2577       859  TIP3      H2            -14.7845471434       -3.2021612121       -3.8431314987  W2        859             0.0000000000
      2578       860  TIP3      OH2           -29.3957571434       -1.4050812121       -0.6766614987  W2        860             0.0000000000
      2579       860  TIP3      H1            -29.2114671434       -1.4869112121       -1.6123714987  W2        860             0.0000000000
      2580       860  TIP3      H2            -28.5464671434       -1.5293812121       -0.2530214987  W2        860             0.0000000000
      2581       861  TIP3      OH2           -13.5747071434       -1.5129712121        4.9517885013  W2        861             0.0000000000
      2582       861  TIP3      H1            -12.9919771434       -2.2477412121        5.1435085013  W2        861             0.0000000000
      2583       861  TIP3      H2            -13.0107771434       -0.7409412121        4.9983685013  W2        861             0.0000000000
      2584       862  TIP3      OH2           -12.0779971434       -3.6103912121        5.6363285013  W2        862             0.0000000000
      2585       862  TIP3      H1            -12.9413271434       -3.9891812121        5.4707985013  W2        862             0.0000000000
      2586       862  TIP3      H2            -11.4736271434       -4.3489112121        5.5619085013  W2        862             0.0000000000
      2587       863  TIP3      OH2           -14.3530871434       -7.4555612121      -11.1905214987  W2        863             0.0000000000
      2588       863  TIP3      H1            -13.7425071434       -7.8268812121      -10.5537014987  W2        863             0.0000000000
      2589       863  TIP3      H2            -15.1899371434       -7.8768712121      -10.9945214987  W2        863             0.0000000000
      2590       864  TIP3      OH2           -14.7205171434       -5.9007212121       -6.2245314987  W2        864             0.0000000000
      2591       864  TIP3      H1            -14.4408071434       -6.8076812121       -6.1003614987  W2        864             0.0000000000
      2592       864  TIP3      H2            -13.9613471434       -5.4665712121       -6.6136114987  W2        864             0.0000000000
      2593       865  TIP3      OH2           -14.1086871434       -5.3189812121       -0.7886414987  W2        865             0.0000000000
      2594       865  TIP3      H1            -13.1758871434       -5.1069912121       -0.8230414987  W2        865             0.0000000000
      2595       865  TIP3      H2            -14.3439371434       -5.2177712121        0.1336585013  W2        865             0.0000000000
      2596       866  TIP3      OH2           -14.0794971434       -4.5824512121        1.9872985013  W2        866             0.0000000000
      2597       866  TIP3      H1            -14.9223671434       -4.3144112121        2.3532785013  W2        866             0.0000000000
      2598       866  TIP3      H2            -13.6370671434       -3.7602612121        1.7764085013  W2        866             0.0000000000
      2599       867  TIP3      OH2           -29.7982771434       -6.1345812121        5.4642185013  W2        867             0.0000000000
      2600       867  TIP3      H1            -28.8787871434       -6.2567512121        5.7005285013  W2        867             0.0000000000
      2601       867  TIP3      H2            -30.2478271434       -6.8846112121        5.8535685013  W2        867             0.0000000000
      2602       868  TIP3      OH2           -11.7963371434      -10.6024312121        7.3407985013  W2        868             0.0000000000
      2603       868  TIP3      H1            -11.4466371434      -11.2560812121        6.7352685013  W2        868             0.0000000000
      2604       868  TIP3      H2            -11.6493871434       -9.7650212121        6.9010585013  W2        868             0.0000000000
      2605       869  TIP3      OH2           -14.1070371434       -8.6377912121       -6.1763314987  W2        869             0.0000000000
      2606       869  TIP3      H1            -13.9245371434       -9.0866412121       -5.3508314987  W2        869             0.0000000000
      2607       869  TIP3      H2            -14.7067471434       -9.2223512121       -6.6398714987  W2        869             0.0000000000
      2608       870  TIP3      OH2           -28.5770271434       -7.8224212121       -1.6444914987  W2        870             0.0000000000
      2609       870  TIP3      H1            -28.1318671434       -8.6141712121       -1.3425214987  W2        870             0.0000000000
      2610       870  TIP3      H2            -28.1107271434       -7.1059012121       -1.2139314987  W2        870             0.0000000000
      2611       871  TIP3      OH2           -30.2729971434       -4.8231212121       -0.5754714987  W2        871             0.0000000000
      2612       871  TIP3      H1            -29.7810171434       -5.0440712121       -1.3662714987  W2        871             0.0000000000
      2613       871  TIP3      H2            -29.9109071434       -3.9827812121       -0.2945214987  W2        871             0.0000000000
      2614       872  TIP3      OH2           -12.2766171434       -8.4929712121        5.6899285013  W2        872             0.0000000000
      2615       872  TIP3      H1            -13.1940471434       -8.2222612121        5.6542785013  W2        872             0.0000000000
      2616       872  TIP3      H2            -12.1536771434       -9.0281312121        4.9058985013  W2        872             0.0000000000
      2617       873  TIP3      OH2           -12.2404171434       -8.5699812121       -9.6483014987  W2        873             0.0000000000
      2618       873  TIP3      H1            -11.8281571434       -9.2914112121      -10.1235014987  W2        873             0.0000000000
      2619       873  TIP3      H2            -11.5587671434       -7.9005212121       -9.5898714987  W2        873             0.0000000000
      2620       874  TIP3      OH2           -29.9593471434       -8.5652112121       -6.5212314987  W2        874             0.0000000000
      2621       874  TIP3      H1            -30.8845071434       -8.3565512121       -6.6506814987  W2        874             0.0000000000
      2622       874  TIP3      H2            -29.5053571434       -8.0811312121       -7.2110014987  W2        874             0.0000000000
      2623       875  TIP3      OH2           -15.1886271434        6.4189587879       -4.5754914987  W2        875             0.0000000000
      2624       875  TIP3      H1            -14.5363371434        6.0711687879       -5.1835814987  W2        875             0.0000000000
      2625       875  TIP3      H2            -14.6782471434        6.9072787879       -3.9295214987  W2        875             0.0000000000
      2626       876  TIP3      OH2           -29.9958071434       -9.8273112121        1.8230185013  W2        876             0.0000000000
      2627       876  TIP3      H1            -30.6607571434      -10.0732812121        2.4661085013  W2        876             0.0000000000
      2628       876  TIP3      H2            -30.4386771434       -9.2052712121        1.2458185013  W2        876             0.0000000000
      2629       877  TIP3      OH2           -27.8038771434        3.3480987879        5.9675985013  W2        877             0.0000000000
      2630       877  TIP3      H1            -28.6246271434        3.5227487879        5.5070685013  W2        877             0.0000000000
      2631       877  TIP3      H2            -28.0560971434        3.2745687879        6.8880385013  W2        877             0.0000000000
      2632       878  TIP3      OH2           -24.8495871434        4.3222187879        2.2259985013  W2        878             0.0000000000
      2633       878  TIP3      H1            -25.2744771434        5.1320687879        1.9434585013  W2        878             0.0000000000
      2634       878  TIP3      H2            -23.9453071434        4.4076287879        1.9239785013  W2        878             0.0000000000
      2635       879  TIP3      OH2           -20.5384471434        5.7212187879        5.1853685013  W2        879             0.0000000000
      2636       879  TIP3      H1            -20.3536971434        5.3878287879        6.0633985013  W2        879             0.0000000000
      2637       879  TIP3      H2            -19.6919971434        6.0310787879        4.8632885013  W2        879             0.0000000000
      2638       880  TIP3      OH2           -18.1934071434        7.0071087879        4.4295085013  W2        880             0.0000000000
      2639       880  TIP3      H1            -17.5165171434        6.3743387879        4.1894285013  W2        880             0.0000000000
      2640       880  TIP3      H2            -17.8715271434        7.4081587879        5.2368385013  W2        880             0.0000000000
      2641       881  TIP3      OH2           -13.2760271434      -10.4033412121        3.5090085013  W2        881             0.0000000000
      2642       881  TIP3      H1            -14.0886771434      -10.0783112121        3.1214785013  W2        881             0.0000000000
      2643       881  TIP3      H2            -13.0431771434      -11.1634912121        2.9759185013  W2        881             0.0000000000
      2644       882  TIP3      OH2           -27.4479171434        7.5786087879        2.2735285013  W2        882             0.0000000000
      2645       882  TIP3      H1            -28.1682771434        8.0187087879        1.8222985013  W2        882             0.0000000000
      2646       882  TIP3      H2            -27.8135171434        7.3280787879        3.1219285013  W2        882             0.0000000000
      2647       883  TIP3      OH2           -24.9806571434        7.1789987879        1.3032485013  W2        883             0.0000000000
      2648       883  TIP3      H1            -25.8454371434        7.2508487879        1.7072585013  W2        883             0.0000000000
      2649       883  TIP3      H2            -25.0357571434        7.7257287879        0.5194985013  W2        883             0.0000000000
      2650       884  TIP3      OH2           -20.2700971434        7.0668887879        0.4788485013  W2        884             0.0000000000
      2651       884  TIP3      H1            -20.7266971434        7.5958587879       -0.1753114987  W2        884             0.0000000000
      2652       884  TIP3      H2            -20.1072971434        7.6700287879        1.2040785013  W2        884             0.0000000000
      2653       885  TIP3      OH2           -17.9424671434        5.9448487879        1.4238785013  W2        885             0.0000000000
      2654       885  TIP3      H1            -18.8470971434        6.1098687879        1.1580885013  W2        885             0.0000000000
      2655       885  TIP3      H2            -17.5136071434        6.7980687879        1.3582185013  W2        885             0.0000000000
      2656       886  TIP3      OH2           -15.3382771434        7.5147587879        1.7186585013  W2        886             0.0000000000
      2657       886  TIP3      H1            -15.5200771434        8.4306487879        1.5081485013  W2        886             0.0000000000
      2658       886  TIP3      H2            -15.1614971434        7.1044687879        0.8721185013  W2        886             0.0000000000
      2659       887  TIP3      OH2           -28.0331071434        6.2018587879       -0.8162914987  W2        887             0.0000000000
      2660       887  TIP3      H1            -28.0515071434        5.7763687879        0.0409385013  W2        887             0.0000000000
      2661       887  TIP3      H2            -27.2283171434        5.8833587879       -1.2250714987  W2        887             0.0000000000
      2662       888  TIP3      OH2           -25.8917971434        4.9117287879       -2.1613014987  W2        888             0.0000000000
      2663       888  TIP3      H1            -26.1107271434        3.9954687879       -1.9917014987  W2        888             0.0000000000
      2664       888  TIP3      H2            -25.0675771434        5.0517687879       -1.6951614987  W2        888             0.0000000000
      2665       889  TIP3      OH2           -23.3545471434        5.3816587879       -1.3125014987  W2        889             0.0000000000
      2666       889  TIP3      H1            -23.1419771434        4.4935587879       -1.5994114987  W2        889             0.0000000000
      2667       889  TIP3      H2            -23.2900371434        5.3474287879       -0.3581014987  W2        889             0.0000000000
      2668       890  TIP3      OH2           -19.8461771434       -8.9542812121       -2.1681714987  W2        890             0.0000000000
      2669       890  TIP3      H1            -20.5204971434       -9.5837212121       -1.9125914987  W2        890             0.0000000000
      2670       890  TIP3      H2            -19.2822571434       -9.4383912121       -2.7713814987  W2        890             0.0000000000
      2671       891  TIP3      OH2           -14.7034571434      -10.8468812121       -2.0554614987  W2        891             0.0000000000
      2672       891  TIP3      H1            -14.0996971434      -10.2993412121       -2.5573614987  W2        891             0.0000000000
      2673       891  TIP3      H2            -15.5732571434      -10.5278412121       -2.2960514987  W2        891             0.0000000000
      2674       892  TIP3      OH2           -12.9764171434       -9.7080112121       -3.7223714987  W2        892             0.0000000000
      2675       892  TIP3      H1            -12.3646671434      -10.2224412121       -4.2490114987  W2        892             0.0000000000
      2676       892  TIP3      H2            -12.5940771434       -8.8308012121       -3.6989314987  W2        892             0.0000000000
      2677       893  TIP3      OH2           -27.5194271434      -10.3202512121       -4.3461814987  W2        893             0.0000000000
      2678       893  TIP3      H1            -28.2964471434      -10.5547612121       -4.8535914987  W2        893             0.0000000000
      2679       893  TIP3      H2            -26.9890671434      -11.1170412121       -4.3373814987  W2        893             0.0000000000
      2680       894  TIP3      OH2           -28.6830871434      -10.5224412121       -8.5425714987  W2        894             0.0000000000
      2681       894  TIP3      H1            -28.2440171434       -9.9113912121       -9.1342214987  W2        894             0.0000000000
      2682       894  TIP3      H2            -29.3168471434       -9.9840312121       -8.0685714987  W2        894             0.0000000000
      2683       895  TIP3      OH2           -22.9401671434      -10.3935412121       -4.5328714987  W2        895             0.0000000000
      2684       895  TIP3      H1            -22.0658271434      -10.0051112121       -4.5624414987  W2        895             0.0000000000
      2685       895  TIP3      H2            -23.0760871434      -10.6087612121       -3.6101514987  W2        895             0.0000000000
      2686       896  TIP3      OH2           -17.3833271434      -10.3635612121       -2.8837014987  W2        896             0.0000000000
      2687       896  TIP3      H1            -17.3071671434      -10.2684012121       -3.8331014987  W2        896             0.0000000000
      2688       896  TIP3      H2            -17.6584071434      -11.2712712121       -2.7547914987  W2        896             0.0000000000
      2689       897  TIP3      OH2           -16.0300671434      -10.3377812121       -7.1912014987  W2        897             0.0000000000
      2690       897  TIP3      H1            -16.7329571434       -9.7228612121       -7.4010614987  W2        897             0.0000000000
      2691       897  TIP3      H2            -16.4749271434      -11.1751112121       -7.0601114987  W2        897             0.0000000000
      2692       898  TIP3      OH2           -28.7821371434        5.4257787879       -7.6450614987  W2        898             0.0000000000
      2693       898  TIP3      H1            -29.4671471434        5.3876687879       -8.3125514987  W2        898             0.0000000000
      2694       898  TIP3      H2            -28.7784171434        6.3385387879       -7.3568514987  W2        898             0.0000000000
      2695       899  TIP3      OH2           -26.8221771434       -8.6062912121      -10.1001614987  W2        899             0.0000000000
      2696       899  TIP3      H1            -26.3308371434       -9.2360512121      -10.6276114987  W2        899             0.0000000000
      2697       899  TIP3      H2            -26.1985471434       -8.3103512121       -9.4370414987  W2        899             0.0000000000
      2698       900  TIP3      OH2           -21.7961671434       -8.3131412121       -7.6431114987  W2        900             0.0000000000
      2699       900  TIP3      H1            -21.6180371434       -8.9598212121       -6.9602514987  W2        900             0.0000000000
      2700       900  TIP3      H2            -21.8495471434       -7.4793712121       -7.1760014987  W2        900             0.0000000000
      2701       901  TIP3      OH2           -19.9177871434        6.6352687879       -9.2474414987  W2        901             0.0000000000
      2702       901  TIP3      H1            -19.0517671434        7.0020087879       -9.4256214987  W2        901             0.0000000000
      2703       901  TIP3      H2            -20.1645071434        6.1960687879      -10.0613614987  W2        901             0.0000000000
      2704       902  TIP3      OH2           -13.2088271434        6.1982987879       -6.5683314987  W2        902             0.0000000000
      2705       902  TIP3      H1            -13.4031171434        5.4505087879       -7.1333714987  W2        902             0.0000000000
      2706       902  TIP3      H2            -13.2478171434        6.9563087879       -7.1515414987  W2        902             0.0000000000
      2707       903  TIP3      OH2           -27.5616271434       -9.8060612121        5.1714385013  W2        903             0.0000000000
      2708       903  TIP3      H1            -27.9278071434      -10.5718012121        5.6139085013  W2        903             0.0000000000
      2709       903  TIP3      H2            -26.6487771434       -9.7770412121        5.4579485013  W2        903             0.0000000000
      2710       904  TIP3      OH2           -25.5885471434      -10.4556212121        6.7071485013  W2        904             0.0000000000
      2711       904  TIP3      H1            -24.6901871434      -10.7296012121        6.5224885013  W2        904             0.0000000000
      2712       904  TIP3      H2            -25.9752371434      -11.1980212121        7.1714085013  W2        904             0.0000000000
      2713       905  TIP3      OH2           -26.9640171434        6.3458587879      -10.6198514987  W2        905             0.0000000000
      2714       905  TIP3      H1            -27.2315571434        6.6321487879       -9.7465414987  W2        905             0.0000000000
      2715       905  TIP3      H2            -26.1927571434        5.7997787879      -10.4676014987  W2        905             0.0000000000
      2716       906  TIP3      OH2           -17.1673171434      -11.1230912121        6.8894285013  W2        906             0.0000000000
      2717       906  TIP3      H1            -17.0905971434      -11.5490212121        7.7431985013  W2        906             0.0000000000
      2718       906  TIP3      H2            -16.2736571434      -11.1096212121        6.5467785013  W2        906             0.0000000000
      2719       907  TIP3      OH2           -13.9912071434        4.9495387879        5.5818485013  W2        907             0.0000000000
      2720       907  TIP3      H1            -14.7730171434        4.7633387879        5.0619085013  W2        907             0.0000000000
      2721       907  TIP3      H2            -14.0632171434        5.8789687879        5.7990985013  W2        907             0.0000000000
      2722       908  TIP3      OH2             0.4148328566       -1.1640212121       -4.3874314987  W2        908             0.0000000000
      2723       908  TIP3      H1              0.5039428566       -0.2202012121       -4.5197214987  W2        908             0.0000000000
      2724       908  TIP3      H2             -0.2234071434       -1.4393812121       -5.0454914987  W2        908             0.0000000000
      2725       909  TIP3      OH2            -0.6520371434       -1.9089512121       -0.9686114987  W2        909             0.0000000000
      2726       909  TIP3      H1             -0.6902871434       -2.5553212121       -0.2636514987  W2        909             0.0000000000
      2727       909  TIP3      H2             -0.9743871434       -2.3755112121       -1.7397414987  W2        909             0.0000000000
      2728       910  TIP3      OH2            -8.2835371434       -2.2947412121        0.6243785013  W2        910             0.0000000000
      2729       910  TIP3      H1             -8.2423271434       -2.9204112121        1.3476185013  W2        910             0.0000000000
      2730       910  TIP3      H2             -7.5807671434       -1.6708812121        0.8064185013  W2        910             0.0000000000
      2731       911  TIP3      OH2             3.0539828566        1.0300887879       -2.6671014987  W2        911             0.0000000000
      2732       911  TIP3      H1              2.6132528566        0.3096887879       -2.2165414987  W2        911             0.0000000000
      2733       911  TIP3      H2              3.0409528566        1.7508087879       -2.0373314987  W2        911             0.0000000000
      2734       912  TIP3      OH2            -7.3602271434        2.1551487879       -0.8407114987  W2        912             0.0000000000
      2735       912  TIP3      H1             -7.7297071434        1.3531987879       -1.2102814987  W2        912             0.0000000000
      2736       912  TIP3      H2             -6.4191171434        1.9866387879       -0.7943714987  W2        912             0.0000000000
      2737       913  TIP3      OH2           -10.7501771434       -4.1845912121       -5.4478314987  W2        913             0.0000000000
      2738       913  TIP3      H1            -11.1978371434       -3.3387212121       -5.4661814987  W2        913             0.0000000000
      2739       913  TIP3      H2            -11.3110571434       -4.7641712121       -5.9633214987  W2        913             0.0000000000
      2740       914  TIP3      OH2           -10.0395671434       -2.0226312121       -3.3220314987  W2        914             0.0000000000
      2741       914  TIP3      H1             -9.8262171434       -2.7924712121       -2.7947314987  W2        914             0.0000000000
      2742       914  TIP3      H2             -9.3018071434       -1.9329612121       -3.9252714987  W2        914             0.0000000000
      2743       915  TIP3      OH2             0.1655328566        6.1342587879       -2.4550614987  W2        915             0.0000000000
      2744       915  TIP3      H1              0.7851728566        5.4577287879       -2.7281414987  W2        915             0.0000000000
      2745       915  TIP3      H2             -0.0427271434        5.9163387879       -1.5465714987  W2        915             0.0000000000
      2746       916  TIP3      OH2            -2.2625971434        0.5231887879       -0.5625114987  W2        916             0.0000000000
      2747       916  TIP3      H1             -1.9588071434       -0.1626712121       -1.1571014987  W2        916             0.0000000000
      2748       916  TIP3      H2             -1.5411971434        0.6420587879        0.0552885013  W2        916             0.0000000000
      2749       917  TIP3      OH2             6.4003828566       -7.8752812121        0.2981085013  W2        917             0.0000000000
      2750       917  TIP3      H1              6.4496028566       -7.2651612121        1.0340185013  W2        917             0.0000000000
      2751       917  TIP3      H2              6.8258928566       -7.4141912121       -0.4247814987  W2        917             0.0000000000
      2752       918  TIP3      OH2             0.8781028566       -5.0825712121       -0.2350314987  W2        918             0.0000000000
      2753       918  TIP3      H1              1.0206928566       -6.0288712121       -0.2148714987  W2        918             0.0000000000
      2754       918  TIP3      H2              0.7720028566       -4.8755912121       -1.1635414987  W2        918             0.0000000000
      2755       919  TIP3      OH2            -5.9670671434       -6.9809312121       -2.9625514987  W2        919             0.0000000000
      2756       919  TIP3      H1             -5.9239571434       -6.1210812121       -3.3809214987  W2        919             0.0000000000
      2757       919  TIP3      H2             -6.4246571434       -7.5334612121       -3.5962314987  W2        919             0.0000000000
      2758       920  TIP3      OH2             1.7552028566       -6.8503712121       -4.5617214987  W2        920             0.0000000000
      2759       920  TIP3      H1              2.4016328566       -7.1790512121       -3.9369614987  W2        920             0.0000000000
      2760       920  TIP3      H2              2.2651428566       -6.3324712121       -5.1845814987  W2        920             0.0000000000
      2761       921  TIP3      OH2            -9.3469171434       -4.5843512121       -2.2004114987  W2        921             0.0000000000
      2762       921  TIP3      H1             -8.6932571434       -5.1341812121       -1.7684014987  W2        921             0.0000000000
      2763       921  TIP3      H2             -9.3229871434       -4.8584512121       -3.1172114987  W2        921             0.0000000000
      2764       922  TIP3      OH2            -4.1904671434       -3.0342212121       -2.9852614987  W2        922             0.0000000000
      2765       922  TIP3      H1             -3.5743671434       -3.5606812121       -2.4758614987  W2        922             0.0000000000
      2766       922  TIP3      H2             -4.7765871434       -3.6743512121       -3.3889014987  W2        922             0.0000000000
      2767       923  TIP3      OH2             6.7918428566       -6.3973612121        2.5340885013  W2        923             0.0000000000
      2768       923  TIP3      H1              6.1033028566       -5.7392912121        2.4387485013  W2        923             0.0000000000
      2769       923  TIP3      H2              6.8073028566       -6.5945712121        3.4706285013  W2        923             0.0000000000
      2770       924  TIP3      OH2            -7.1568771434       -8.0630912121        1.1115285013  W2        924             0.0000000000
      2771       924  TIP3      H1             -7.3757071434       -7.5330312121        0.3451285013  W2        924             0.0000000000
      2772       924  TIP3      H2             -7.8247871434       -7.8365412121        1.7586685013  W2        924             0.0000000000
      2773       925  TIP3      OH2             0.2121028566        1.4370187879       -5.3445614987  W2        925             0.0000000000
      2774       925  TIP3      H1             -0.0833871434        1.1142487879       -6.1958714987  W2        925             0.0000000000
      2775       925  TIP3      H2             -0.1121171434        2.3366887879       -5.3033014987  W2        925             0.0000000000
      2776       926  TIP3      OH2            -4.5877371434       -0.3875212121        1.3988985013  W2        926             0.0000000000
      2777       926  TIP3      H1             -5.3278271434        0.2106287879        1.5024185013  W2        926             0.0000000000
      2778       926  TIP3      H2             -3.8737871434        0.1664387879        1.0832585013  W2        926             0.0000000000
      2779       927  TIP3      OH2             3.5190428566       -7.5594412121       -2.5811314987  W2        927             0.0000000000
      2780       927  TIP3      H1              3.3038428566       -8.3251012121       -2.0485314987  W2        927             0.0000000000
      2781       927  TIP3      H2              4.1747828566       -7.0869812121       -2.0682814987  W2        927             0.0000000000
      2782       928  TIP3      OH2            -7.5631471434       -6.1709112121       -0.9362514987  W2        928             0.0000000000
      2783       928  TIP3      H1             -6.9495171434       -5.5381512121       -0.5630114987  W2        928             0.0000000000
      2784       928  TIP3      H2             -7.0510771434       -6.6434112121       -1.5925614987  W2        928             0.0000000000
      2785       929  TIP3      OH2            -6.1803071434        1.5767787879        2.1860485013  W2        929             0.0000000000
      2786       929  TIP3      H1             -6.1855471434        2.4561287879        1.8079785013  W2        929             0.0000000000
      2787       929  TIP3      H2             -7.0338971434        1.4931887879        2.6110385013  W2        929             0.0000000000
      2788       930  TIP3      OH2           -10.0592171434        1.2475687879       -7.0320214987  W2        930             0.0000000000
      2789       930  TIP3      H1            -10.3311271434        1.4766687879       -7.9207314987  W2        930             0.0000000000
      2790       930  TIP3      H2            -10.0136471434        2.0854487879       -6.5714914987  W2        930             0.0000000000
      2791       931  TIP3      OH2             3.5657528566        2.8691587879       -0.3191714987  W2        931             0.0000000000
      2792       931  TIP3      H1              2.6241228566        2.9275487879       -0.1574814987  W2        931             0.0000000000
      2793       931  TIP3      H2              3.8423628566        3.7752087879       -0.4562014987  W2        931             0.0000000000
      2794       932  TIP3      OH2             3.8664528566       -8.8443112121        1.0982185013  W2        932             0.0000000000
      2795       932  TIP3      H1              3.1303728566       -8.2336012121        1.0603485013  W2        932             0.0000000000
      2796       932  TIP3      H2              4.5498528566       -8.4294112121        0.5718585013  W2        932             0.0000000000
      2797       933  TIP3      OH2            -3.1304071434      -10.7575812121       -1.4359814987  W2        933             0.0000000000
      2798       933  TIP3      H1             -3.2479871434      -11.7059812121       -1.4901514987  W2        933             0.0000000000
      2799       933  TIP3      H2             -3.9853971434      -10.4249712121       -1.1628714987  W2        933             0.0000000000
      2800       934  TIP3      OH2             1.8178728566        4.6505087879       -3.6940114987  W2        934             0.0000000000
      2801       934  TIP3      H1              2.2431028566        3.9432987879       -4.1790514987  W2        934             0.0000000000
      2802       934  TIP3      H2              2.1348728566        5.4517787879       -4.1107914987  W2        934             0.0000000000
      2803       935  TIP3      OH2             2.9775228566        2.5513587879       -5.1853514987  W2        935             0.0000000000
      2804       935  TIP3      H1              2.7200028566        1.8613687879       -5.7967614987  W2        935             0.0000000000
      2805       935  TIP3      H2              3.0486028566        2.1084787879       -4.3397614987  W2        935             0.0000000000
      2806       936  TIP3      OH2             4.6635428566        1.1180287879        3.2919985013  W2        936             0.0000000000
      2807       936  TIP3      H1              4.8031728566        0.5262787879        2.5526985013  W2        936             0.0000000000
      2808       936  TIP3      H2              4.8308228566        1.9906187879        2.9358785013  W2        936             0.0000000000
      2809       937  TIP3      OH2            -0.8639171434       -1.9200212121       -6.9354014987  W2        937             0.0000000000
      2810       937  TIP3      H1             -1.5753671434       -1.3850512121       -7.2873514987  W2        937             0.0000000000
      2811       937  TIP3      H2             -0.1729571434       -1.8648112121       -7.5955114987  W2        937             0.0000000000
      2812       938  TIP3      OH2            -0.8099971434       -3.4625912121       -9.8969014987  W2        938             0.0000000000
      2813       938  TIP3      H1             -0.1090071434       -3.4399012121       -9.2455014987  W2        938             0.0000000000
      2814       938  TIP3      H2             -0.5077071434       -4.0906212121      -10.5529714987  W2        938             0.0000000000
      2815       939  TIP3      OH2             6.5054728566       -2.5421712121        1.3580385013  W2        939             0.0000000000
      2816       939  TIP3      H1              5.8528828566       -1.8476112121        1.4471285013  W2        939             0.0000000000
      2817       939  TIP3      H2              6.9705028566       -2.3320812121        0.5481985013  W2        939             0.0000000000
      2818       940  TIP3      OH2             2.5418528566       -1.7106912121       -5.9838114987  W2        940             0.0000000000
      2819       940  TIP3      H1              1.8099528566       -1.4823212121       -5.4107514987  W2        940             0.0000000000
      2820       940  TIP3      H2              2.9890728566       -2.4244212121       -5.5290614987  W2        940             0.0000000000
      2821       941  TIP3      OH2             2.4392028566       -3.5364312121        3.0838885013  W2        941             0.0000000000
      2822       941  TIP3      H1              2.5191128566       -2.7729912121        3.6557385013  W2        941             0.0000000000
      2823       941  TIP3      H2              1.8379728566       -3.2571912121        2.3933985013  W2        941             0.0000000000
      2824       942  TIP3      OH2            -5.8127771434       -1.0800712121       -4.1013114987  W2        942             0.0000000000
      2825       942  TIP3      H1             -6.1432571434       -1.4507312121       -4.9196114987  W2        942             0.0000000000
      2826       942  TIP3      H2             -5.2243671434       -1.7506712121       -3.7544814987  W2        942             0.0000000000
      2827       943  TIP3      OH2            -4.4460271434        2.3479887879       -1.4200914987  W2        943             0.0000000000
      2828       943  TIP3      H1             -4.5408971434        1.7692987879       -2.1766314987  W2        943             0.0000000000
      2829       943  TIP3      H2             -3.7166671434        1.9765587879       -0.9238114987  W2        943             0.0000000000
      2830       944  TIP3      OH2            -5.4462271434       -2.3115112121       -0.4678114987  W2        944             0.0000000000
      2831       944  TIP3      H1             -4.8809771434       -2.1900912121       -1.2306914987  W2        944             0.0000000000
      2832       944  TIP3      H2             -5.1273371434       -1.6740112121        0.1710385013  W2        944             0.0000000000
      2833       945  TIP3      OH2             0.8629928566        3.1916787879        0.2662385013  W2        945             0.0000000000
      2834       945  TIP3      H1              0.6226528566        3.8539887879        0.9141585013  W2        945             0.0000000000
      2835       945  TIP3      H2              0.6648128566        2.3571987879        0.6911985013  W2        945             0.0000000000
      2836       946  TIP3      OH2            -4.5661571434        2.0877587879        4.2493785013  W2        946             0.0000000000
      2837       946  TIP3      H1             -4.8774071434        2.8700787879        4.7046985013  W2        946             0.0000000000
      2838       946  TIP3      H2             -5.2161371434        1.9346687879        3.5635785013  W2        946             0.0000000000
      2839       947  TIP3      OH2             1.4128028566       -2.5484012121       -8.2986914987  W2        947             0.0000000000
      2840       947  TIP3      H1              1.9923528566       -2.3983712121       -7.5518014987  W2        947             0.0000000000
      2841       947  TIP3      H2              1.8268028566       -2.0776612121       -9.0220514987  W2        947             0.0000000000
      2842       948  TIP3      OH2            -7.6461671434       -1.7141312121        3.4779485013  W2        948             0.0000000000
      2843       948  TIP3      H1             -7.5758471434       -1.0634512121        4.1764485013  W2        948             0.0000000000
      2844       948  TIP3      H2             -8.5369471434       -1.6113812121        3.1430385013  W2        948             0.0000000000
      2845       949  TIP3      OH2            -0.8607071434        4.1884487879       -4.8633814987  W2        949             0.0000000000
      2846       949  TIP3      H1             -0.3869471434        4.4840787879       -4.0859614987  W2        949             0.0000000000
      2847       949  TIP3      H2             -1.4237771434        4.9266087879       -5.0964214987  W2        949             0.0000000000
      2848       950  TIP3      OH2            -6.3265671434        4.1592587879        5.0127585013  W2        950             0.0000000000
      2849       950  TIP3      H1             -6.3190371434        4.0232287879        4.0653085013  W2        950             0.0000000000
      2850       950  TIP3      H2             -7.2425271434        4.0420687879        5.2647585013  W2        950             0.0000000000
      2851       951  TIP3      OH2             5.1116428566      -10.7983612121       -8.4857214987  W2        951             0.0000000000
      2852       951  TIP3      H1              4.2117128566      -10.6594612121       -8.1906614987  W2        951             0.0000000000
      2853       951  TIP3      H2              5.3634828566       -9.9669012121       -8.8875514987  W2        951             0.0000000000
      2854       952  TIP3      OH2            -6.8225071434       -2.0106412121       -6.5120314987  W2        952             0.0000000000
      2855       952  TIP3      H1             -7.1143771434       -1.2424712121       -7.0029014987  W2        952             0.0000000000
      2856       952  TIP3      H2             -7.4969871434       -2.6700212121       -6.6748914987  W2        952             0.0000000000
      2857       953  TIP3      OH2             6.3007828566        3.5678787879      -10.1093314987  W2        953             0.0000000000
      2858       953  TIP3      H1              6.3741328566        4.5068987879       -9.9388014987  W2        953             0.0000000000
      2859       953  TIP3      H2              7.2062928566        3.2627387879      -10.1656014987  W2        953             0.0000000000
      2860       954  TIP3      OH2           -10.7294971434        0.3522787879        2.3029485013  W2        954             0.0000000000
      2861       954  TIP3      H1            -11.2306571434        0.3242187879        1.4879185013  W2        954             0.0000000000
      2862       954  TIP3      H2            -10.7241271434       -0.5534012121        2.6126785013  W2        954             0.0000000000
      2863       955  TIP3      OH2           -10.9792271434        3.1326587879       -0.8130314987  W2        955             0.0000000000
      2864       955  TIP3      H1            -10.0331671434        2.9883587879       -0.8320814987  W2        955             0.0000000000
      2865       955  TIP3      H2            -11.0915971434        3.9169387879       -0.2759114987  W2        955             0.0000000000
      2866       956  TIP3      OH2             7.2186228566        3.7986287879        4.8693385013  W2        956             0.0000000000
      2867       956  TIP3      H1              7.1693028566        2.8434387879        4.8320985013  W2        956             0.0000000000
      2868       956  TIP3      H2              6.3918528566        4.0661587879        5.2707185013  W2        956             0.0000000000
      2869       957  TIP3      OH2            -1.8029771434        3.3725487879        3.7454785013  W2        957             0.0000000000
      2870       957  TIP3      H1             -1.7155171434        4.1990087879        4.2203885013  W2        957             0.0000000000
      2871       957  TIP3      H2             -2.6664671434        3.0429287879        3.9944085013  W2        957             0.0000000000
      2872       958  TIP3      OH2            -1.3883971434        7.1449187879       -6.4484614987  W2        958             0.0000000000
      2873       958  TIP3      H1             -1.4637971434        7.0236387879       -7.3949414987  W2        958             0.0000000000
      2874       958  TIP3      H2             -1.3555271434        8.0941887879       -6.3300014987  W2        958             0.0000000000
      2875       959  TIP3      OH2            -7.7350171434        5.9336187879       -4.6675614987  W2        959             0.0000000000
      2876       959  TIP3      H1             -7.5829771434        5.5856587879       -3.7889114987  W2        959             0.0000000000
      2877       959  TIP3      H2             -8.5859771434        5.5773487879       -4.9228414987  W2        959             0.0000000000
      2878       960  TIP3      OH2             1.7132028566        6.2989387879       -9.4462214987  W2        960             0.0000000000
      2879       960  TIP3      H1              2.0880428566        5.5545487879       -9.9169614987  W2        960             0.0000000000
      2880       960  TIP3      H2              1.7175728566        6.0289987879       -8.5278914987  W2        960             0.0000000000
      2881       961  TIP3      OH2             1.3820128566        6.2246487879       -6.6970014987  W2        961             0.0000000000
      2882       961  TIP3      H1              0.4469928566        6.3248387879       -6.5183014987  W2        961             0.0000000000
      2883       961  TIP3      H2              1.6622028566        5.5152487879       -6.1186814987  W2        961             0.0000000000
      2884       962  TIP3      OH2             4.3706028566       -4.7081212121        5.3495585013  W2        962             0.0000000000
      2885       962  TIP3      H1              3.9632828566       -4.2275612121        4.6288885013  W2        962             0.0000000000
      2886       962  TIP3      H2              4.4111728566       -5.6135212121        5.0416385013  W2        962             0.0000000000
      2887       963  TIP3      OH2            -8.4804471434        1.6758187879        3.3462285013  W2        963             0.0000000000
      2888       963  TIP3      H1             -8.2643171434        1.3143787879        4.2058085013  W2        963             0.0000000000
      2889       963  TIP3      H2             -9.3359771434        1.3011987879        3.1365785013  W2        963             0.0000000000
      2890       964  TIP3      OH2            -5.8616471434       -9.8541312121       -0.6583514987  W2        964             0.0000000000
      2891       964  TIP3      H1             -6.7232771434       -9.9413112121       -1.0660614987  W2        964             0.0000000000
      2892       964  TIP3      H2             -5.8840771434       -8.9981212121       -0.2305914987  W2        964             0.0000000000
      2893       965  TIP3      OH2            -1.1988671434      -10.1320912121        2.7163485013  W2        965             0.0000000000
      2894       965  TIP3      H1             -0.7785571434      -10.5473812121        3.4694085013  W2        965             0.0000000000
      2895       965  TIP3      H2             -2.1319071434      -10.3107612121        2.8335485013  W2        965             0.0000000000
      2896       966  TIP3      OH2             2.1276228566       -6.3765712121        3.5697985013  W2        966             0.0000000000
      2897       966  TIP3      H1              1.6135728566       -6.5023512121        4.3673985013  W2        966             0.0000000000
      2898       966  TIP3      H2              1.9720928566       -5.4642612121        3.3254185013  W2        966             0.0000000000
      2899       967  TIP3      OH2             2.8901128566       -1.5155712121      -10.6689014987  W2        967             0.0000000000
      2900       967  TIP3      H1              2.9321928566       -1.7381812121      -11.5989014987  W2        967             0.0000000000
      2901       967  TIP3      H2              3.7393228566       -1.1168612121      -10.4789114987  W2        967             0.0000000000
      2902       968  TIP3      OH2            -1.5371371434       -7.6397512121       -9.9985714987  W2        968             0.0000000000
      2903       968  TIP3      H1             -1.7906571434       -7.6205912121       -9.0757614987  W2        968             0.0000000000
      2904       968  TIP3      H2             -1.7939271434       -8.5112112121      -10.2999514987  W2        968             0.0000000000
      2905       969  TIP3      OH2            -5.7706371434       -4.8886812121        0.4366685013  W2        969             0.0000000000
      2906       969  TIP3      H1             -6.4124271434       -4.9289512121        1.1456785013  W2        969             0.0000000000
      2907       969  TIP3      H2             -5.7334371434       -3.9622112121        0.1989685013  W2        969             0.0000000000
      2908       970  TIP3      OH2            -5.7737271434       -4.6676712121       -4.6513314987  W2        970             0.0000000000
      2909       970  TIP3      H1             -6.6664371434       -5.0080612121       -4.7099514987  W2        970             0.0000000000
      2910       970  TIP3      H2             -5.3230671434       -5.0445812121       -5.4070114987  W2        970             0.0000000000
      2911       971  TIP3      OH2            -0.2381771434       -4.2516412121       -5.8342514987  W2        971             0.0000000000
      2912       971  TIP3      H1             -0.6471471434       -3.4367812121       -6.1257714987  W2        971             0.0000000000
      2913       971  TIP3      H2              0.4824428566       -4.3916312121       -6.4485414987  W2        971             0.0000000000
      2914       972  TIP3      OH2            -1.1360171434       -4.0760012121        5.6538185013  W2        972             0.0000000000
      2915       972  TIP3      H1             -1.6986371434       -4.7808412121        5.9745985013  W2        972             0.0000000000
      2916       972  TIP3      H2             -0.3096771434       -4.1968112121        6.1215785013  W2        972             0.0000000000
      2917       973  TIP3      OH2             0.7665928566       -4.8056012121       -3.0202814987  W2        973             0.0000000000
      2918       973  TIP3      H1              0.5710428566       -4.1999212121       -3.7352214987  W2        973             0.0000000000
      2919       973  TIP3      H2              0.9478528566       -5.6390812121       -3.4546514987  W2        973             0.0000000000
      2920       974  TIP3      OH2            -8.0205871434       -4.5683312121        2.3038685013  W2        974             0.0000000000
      2921       974  TIP3      H1             -8.0586471434       -4.1681712121        3.1725785013  W2        974             0.0000000000
      2922       974  TIP3      H2             -8.5114771434       -5.3850912121        2.3941585013  W2        974             0.0000000000
      2923       975  TIP3      OH2            -4.6548471434       -7.1941012121      -10.8975314987  W2        975             0.0000000000
      2924       975  TIP3      H1             -5.0857771434       -7.6390912121      -10.1677914987  W2        975             0.0000000000
      2925       975  TIP3      H2             -5.3729771434       -6.8224712121      -11.4097814987  W2        975             0.0000000000
      2926       976  TIP3      OH2           -11.4125071434       -7.4521512121       -3.8456614987  W2        976             0.0000000000
      2927       976  TIP3      H1            -10.7817371434       -7.4809412121       -3.1262714987  W2        976             0.0000000000
      2928       976  TIP3      H2            -10.9630771434       -7.8772812121       -4.5760714987  W2        976             0.0000000000
      2929       977  TIP3      OH2           -10.1382971434       -6.7059512121       -8.4216214987  W2        977             0.0000000000
      2930       977  TIP3      H1             -9.6641271434       -6.1149612121       -9.0065314987  W2        977             0.0000000000
      2931       977  TIP3      H2            -10.8556571434       -6.1756612121       -8.0746114987  W2        977             0.0000000000
      2932       978  TIP3      OH2             0.0305128566       -3.1674712121        1.6509585013  W2        978             0.0000000000
      2933       978  TIP3      H1              0.3539928566       -3.7985012121        1.0080085013  W2        978             0.0000000000
      2934       978  TIP3      H2             -0.4095571434       -3.7022512121        2.3116985013  W2        978             0.0000000000
      2935       979  TIP3      OH2            -3.1921971434       -7.2399212121       -3.5649214987  W2        979             0.0000000000
      2936       979  TIP3      H1             -4.1030871434       -7.1832412121       -3.2763214987  W2        979             0.0000000000
      2937       979  TIP3      H2             -2.6869071434       -7.3003712121       -2.7542014987  W2        979             0.0000000000
      2938       980  TIP3      OH2            -8.3638571434       -5.6112912121       -4.7381614987  W2        980             0.0000000000
      2939       980  TIP3      H1             -9.2530571434       -5.5117412121       -5.0782014987  W2        980             0.0000000000
      2940       980  TIP3      H2             -8.0673671434       -6.4529912121       -5.0843714987  W2        980             0.0000000000
      2941       981  TIP3      OH2            -4.7106771434       -5.6110312121       -7.0817014987  W2        981             0.0000000000
      2942       981  TIP3      H1             -3.7791271434       -5.4820312121       -6.9033914987  W2        981             0.0000000000
      2943       981  TIP3      H2             -4.9256471434       -4.9416012121       -7.7312314987  W2        981             0.0000000000
      2944       982  TIP3      OH2             1.2129928566       -8.0052912121       -0.3007414987  W2        982             0.0000000000
      2945       982  TIP3      H1              0.5361528566       -7.8739812121        0.3632285013  W2        982             0.0000000000
      2946       982  TIP3      H2              0.7274828566       -8.1603412121       -1.1109714987  W2        982             0.0000000000
      2947       983  TIP3      OH2            -6.0366571434       -4.4168112121       -9.5150914987  W2        983             0.0000000000
      2948       983  TIP3      H1             -6.5791471434       -4.7964312121      -10.2063314987  W2        983             0.0000000000
      2949       983  TIP3      H2             -5.2031671434       -4.2223412121       -9.9436814987  W2        983             0.0000000000
      2950       984  TIP3      OH2             4.5005028566        7.6662487879        5.9760185013  W2        984             0.0000000000
      2951       984  TIP3      H1              4.7003728566        8.0904387879        5.1415485013  W2        984             0.0000000000
      2952       984  TIP3      H2              5.1558728566        8.0100687879        6.5830585013  W2        984             0.0000000000
      2953       985  TIP3      OH2            -7.9015171434        0.1403787879        5.5840685013  W2        985             0.0000000000
      2954       985  TIP3      H1             -7.1692771434        0.3949687879        6.1455185013  W2        985             0.0000000000
      2955       985  TIP3      H2             -8.6816471434        0.3449187879        6.0996085013  W2        985             0.0000000000
      2956       986  TIP3      OH2            -1.8722271434       -4.4526212121       -1.6779614987  W2        986             0.0000000000
      2957       986  TIP3      H1             -1.3078871434       -4.9989612121       -2.2250014987  W2        986             0.0000000000
      2958       986  TIP3      H2             -2.0198871434       -4.9744312121       -0.8892014987  W2        986             0.0000000000
      2959       987  TIP3      OH2            -6.8702571434       -8.3160112121       -5.2594814987  W2        987             0.0000000000
      2960       987  TIP3      H1             -7.1873071434       -9.2184812121       -5.2949414987  W2        987             0.0000000000
      2961       987  TIP3      H2             -6.0888471434       -8.3142712121       -5.8123214987  W2        987             0.0000000000
      2962       988  TIP3      OH2            -3.2456371434       -6.0640112121        0.7360785013  W2        988             0.0000000000
      2963       988  TIP3      H1             -4.0811071434       -5.6100612121        0.8463185013  W2        988             0.0000000000
      2964       988  TIP3      H2             -2.7215771434       -5.7881612121        1.4880685013  W2        988             0.0000000000
      2965       989  TIP3      OH2            -2.7013771434        0.1487587879       -7.5792814987  W2        989             0.0000000000
      2966       989  TIP3      H1             -3.4462771434       -0.3587112121       -7.9014914987  W2        989             0.0000000000
      2967       989  TIP3      H2             -2.8356571434        0.1975587879       -6.6328014987  W2        989             0.0000000000
      2968       990  TIP3      OH2             4.4485128566       -0.7184212121        1.2074785013  W2        990             0.0000000000
      2969       990  TIP3      H1              5.0903928566       -0.2617912121        0.6636985013  W2        990             0.0000000000
      2970       990  TIP3      H2              3.6182028566       -0.6051812121        0.7448885013  W2        990             0.0000000000
      2971       991  TIP3      OH2             1.1963028566       -7.0372512121       -9.3800214987  W2        991             0.0000000000
      2972       991  TIP3      H1              0.2577228566       -6.9256912121       -9.5311414987  W2        991             0.0000000000
      2973       991  TIP3      H2              1.4935128566       -6.1805612121       -9.0734514987  W2        991             0.0000000000
      2974       992  TIP3      OH2            -1.1821671434        0.3330887879        3.6576285013  W2        992             0.0000000000
      2975       992  TIP3      H1             -1.5275571434       -0.0486712121        4.4645885013  W2        992             0.0000000000
      2976       992  TIP3      H2             -1.3821571434        1.2664487879        3.7289185013  W2        992             0.0000000000
      2977       993  TIP3      OH2             1.9146528566       -5.1699812121       -7.7192814987  W2        993             0.0000000000
      2978       993  TIP3      H1              2.8065528566       -5.3074812121       -7.4001614987  W2        993             0.0000000000
      2979       993  TIP3      H2              1.9710128566       -4.3793712121       -8.2559314987  W2        993             0.0000000000
      2980       994  TIP3      OH2            -7.5765471434       -0.5562412121       -1.8094914987  W2        994             0.0000000000
      2981       994  TIP3      H1             -6.8318271434       -0.5586712121       -2.4108414987  W2        994             0.0000000000
      2982       994  TIP3      H2             -7.4988871434       -1.3798612121       -1.3279814987  W2        994             0.0000000000
      2983       995  TIP3      OH2            -0.5759671434        1.6071887879       -8.5538214987  W2        995             0.0000000000
      2984       995  TIP3      H1             -0.8711271434        2.4339787879       -8.1723414987  W2        995             0.0000000000
      2985       995  TIP3      H2             -1.2789671434        0.9878787879       -8.3576814987  W2        995             0.0000000000
      2986       996  TIP3      OH2           -10.5685771434       -2.0955512121        3.5053585013  W2        996             0.0000000000
      2987       996  TIP3      H1            -10.3457171434       -2.5135912121        4.3371085013  W2        996             0.0000000000
      2988       996  TIP3      H2            -11.1705671434       -2.7080512121        3.0826385013  W2        996             0.0000000000
      2989       997  TIP3      OH2            -3.5520871434       -2.5785612121        5.7183285013  W2        997             0.0000000000
      2990       997  TIP3      H1             -3.8480071434       -2.7442612121        4.8232385013  W2        997             0.0000000000
      2991       997  TIP3      H2             -2.6205671434       -2.7985312121        5.7077185013  W2        997             0.0000000000
      2992       998  TIP3      OH2             1.0681928566        2.7946387879        3.6081285013  W2        998             0.0000000000
      2993       998  TIP3      H1              0.1676228566        2.9778987879        3.3405185013  W2        998             0.0000000000
      2994       998  TIP3      H2              1.1023028566        3.0535687879        4.5290085013  W2        998             0.0000000000
      2995       999  TIP3      OH2             6.7995228566       -4.9605712121       -8.0246114987  W2        999             0.0000000000
      2996       999  TIP3      H1              6.2451528566       -5.3567712121       -8.6968614987  W2        999             0.0000000000
      2997       999  TIP3      H2              6.8998828566       -4.0500512121       -8.3022814987  W2        999             0.0000000000
      2998      1000  TIP3      OH2             6.7627228566        0.8395987879        4.8125385013  W2        1000            0.0000000000
      2999      1000  TIP3      H1              5.9115728566        1.0779787879        4.4451785013  W2        1000            0.0000000000
      3000      1000  TIP3      H2              7.3530628566        0.8229187879        4.0592485013  W2        1000            0.0000000000
      3001      1001  TIP3      OH2             5.0946928566        3.8254687879       -7.5594014987  W2        1001            0.0000000000
      3002      1001  TIP3      H1              4.7218028566        2.9998487879       -7.2503414987  W2        1001            0.0000000000
      3003      1001  TIP3      H2              5.3720428566        3.6424087879       -8.4570614987  W2        1001            0.0000000000
      3004      1002  TIP3      OH2             2.2550828566       -1.3665812121       -0.5382114987  W2        1002            0.0000000000
      3005      1002  TIP3      H1              1.3267728566       -1.5983912121       -0.5652814987  W2        1002            0.0000000000
      3006      1002  TIP3      H2              2.7061928566       -2.1436012121       -0.8683314987  W2        1002            0.0000000000
      3007      1003  TIP3      OH2            -5.2016071434        2.9615787879       -4.4053414987  W2        1003            0.0000000000
      3008      1003  TIP3      H1             -4.6743871434        3.7350187879       -4.6054614987  W2        1003            0.0000000000
      3009      1003  TIP3      H2             -6.0817571434        3.1864987879       -4.7069414987  W2        1003            0.0000000000
      3010      1004  TIP3      OH2            -9.4468371434       -2.1760112121       -9.8181014987  W2        1004            0.0000000000
      3011      1004  TIP3      H1             -8.8308471434       -1.5492912121       -9.4386214987  W2        1004            0.0000000000
      3012      1004  TIP3      H2            -10.3085771434       -1.8600312121       -9.5464514987  W2        1004            0.0000000000
      3013      1005  TIP3      OH2            -3.7743771434        0.6245687879       -4.8289114987  W2        1005            0.0000000000
      3014      1005  TIP3      H1             -4.0153771434        1.5500087879       -4.7873814987  W2        1005            0.0000000000
      3015      1005  TIP3      H2             -4.5150171434        0.1656987879       -4.4325214987  W2        1005            0.0000000000
      3016      1006  TIP3      OH2            -3.2597171434        4.7739287879        1.4861985013  W2        1006            0.0000000000
      3017      1006  TIP3      H1             -2.8972471434        5.6284887879        1.2526385013  W2        1006            0.0000000000
      3018      1006  TIP3      H2             -2.7281971434        4.4820887879        2.2268285013  W2        1006            0.0000000000
      3019      1007  TIP3      OH2            -5.0912971434        5.6463287879       -5.2836914987  W2        1007            0.0000000000
      3020      1007  TIP3      H1             -6.0412471434        5.7520687879       -5.2323614987  W2        1007            0.0000000000
      3021      1007  TIP3      H2             -4.7394871434        6.4670687879       -4.9389414987  W2        1007            0.0000000000
      3022      1008  TIP3      OH2             0.2843628566        0.8729987879        1.1867585013  W2        1008            0.0000000000
      3023      1008  TIP3      H1             -0.1415071434        0.6451687879        2.0131585013  W2        1008            0.0000000000
      3024      1008  TIP3      H2              0.8649428566        0.1341787879        1.0042885013  W2        1008            0.0000000000
      3025      1009  TIP3      OH2             2.4872528566        1.8020487879       -9.7393414987  W2        1009            0.0000000000
      3026      1009  TIP3      H1              2.8405628566        1.4220287879       -8.9349914987  W2        1009            0.0000000000
      3027      1009  TIP3      H2              1.5386028566        1.7085287879       -9.6524114987  W2        1009            0.0000000000
      3028      1010  TIP3      OH2             2.9427828566        5.4249487879        3.6562385013  W2        1010            0.0000000000
      3029      1010  TIP3      H1              2.3411028566        4.8692387879        3.1608685013  W2        1010            0.0000000000
      3030      1010  TIP3      H2              3.2241528566        6.0919287879        3.0299785013  W2        1010            0.0000000000
      3031      1011  TIP3      OH2             6.9906928566        6.2812987879       -9.5383214987  W2        1011            0.0000000000
      3032      1011  TIP3      H1              7.7344828566        6.8673487879       -9.6781614987  W2        1011            0.0000000000
      3033      1011  TIP3      H2              6.2965028566        6.8498787879       -9.2050814987  W2        1011            0.0000000000
      3034      1012  TIP3      OH2            -8.9346271434       -7.3422812121        3.0634985013  W2        1012            0.0000000000
      3035      1012  TIP3      H1             -9.8273971434       -7.0037412121        2.9958985013  W2        1012            0.0000000000
      3036      1012  TIP3      H2             -9.0333471434       -8.1976712121        3.4815785013  W2        1012            0.0000000000
      3037      1013  TIP3      OH2             3.3531828566        0.4742487879       -7.5125514987  W2        1013            0.0000000000
      3038      1013  TIP3      H1              3.0759428566       -0.2538212121       -6.9564414987  W2        1013            0.0000000000
      3039      1013  TIP3      H2              4.2804828566        0.5934487879       -7.3072914987  W2        1013            0.0000000000
      3040      1014  TIP3      OH2            -9.2834271434        4.4621587879        1.4984385013  W2        1014            0.0000000000
      3041      1014  TIP3      H1             -9.0663971434        3.5303987879        1.4674085013  W2        1014            0.0000000000
      3042      1014  TIP3      H2             -9.0370771434        4.7366587879        2.3817185013  W2        1014            0.0000000000
      3043      1015  TIP3      OH2            -3.4219671434        2.9136587879      -11.2923414987  W2        1015            0.0000000000
      3044      1015  TIP3      H1             -3.1829871434        2.1654687879      -11.8394514987  W2        1015            0.0000000000
      3045      1015  TIP3      H2             -3.6908371434        2.5258287879      -10.4595614987  W2        1015            0.0000000000
      3046      1016  TIP3      OH2            -4.4849071434        2.4840387879       -8.8360814987  W2        1016            0.0000000000
      3047      1016  TIP3      H1             -4.3381071434        1.9640187879       -8.0459914987  W2        1016            0.0000000000
      3048      1016  TIP3      H2             -4.4877371434        3.3907987879       -8.5294914987  W2        1016            0.0000000000
      3049      1017  TIP3      OH2            -8.0317971434       -0.2636312121       -8.3255414987  W2        1017            0.0000000000
      3050      1017  TIP3      H1             -8.7178671434        0.0886187879       -7.7585714987  W2        1017            0.0000000000
      3051      1017  TIP3      H2             -7.5090071434        0.4993287879       -8.5721114987  W2        1017            0.0000000000
      3052      1018  TIP3      OH2            -0.2002871434       -7.6012512121        1.9533585013  W2        1018            0.0000000000
      3053      1018  TIP3      H1              0.4985028566       -7.5273812121        2.6033285013  W2        1018            0.0000000000
      3054      1018  TIP3      H2             -0.5811471434       -8.4657512121        2.1076485013  W2        1018            0.0000000000
      3055      1019  TIP3      OH2             0.5842028566       -7.9490812121       -6.9494114987  W2        1019            0.0000000000
      3056      1019  TIP3      H1              0.8040328566       -7.4775412121       -7.7528714987  W2        1019            0.0000000000
      3057      1019  TIP3      H2              1.1426028566       -7.5548212121       -6.2793514987  W2        1019            0.0000000000
      3058      1020  TIP3      OH2            -1.7471871434        4.1813987879       -8.0866614987  W2        1020            0.0000000000
      3059      1020  TIP3      H1             -2.5635771434        4.6783687879       -8.0342314987  W2        1020            0.0000000000
      3060      1020  TIP3      H2             -1.2175571434        4.6567487879       -8.7267814987  W2        1020            0.0000000000
      3061      1021  TIP3      OH2            -2.2158071434       -6.2212012121       -6.1145714987  W2        1021            0.0000000000
      3062      1021  TIP3      H1             -1.4035471434       -5.7168812121       -6.0684014987  W2        1021            0.0000000000
      3063      1021  TIP3      H2             -2.4605071434       -6.3662312121       -5.2006114987  W2        1021            0.0000000000
      3064      1022  TIP3      OH2            -1.6801671434       -5.2349312121        3.0700885013  W2        1022            0.0000000000
      3065      1022  TIP3      H1             -1.5611371434       -4.6613912121        3.8271285013  W2        1022            0.0000000000
      3066      1022  TIP3      H2             -1.0247071434       -5.9229912121        3.1848685013  W2        1022            0.0000000000
      3067      1023  TIP3      OH2            -1.3321371434       -9.1399012121       -5.1764614987  W2        1023            0.0000000000
      3068      1023  TIP3      H1             -1.6787871434       -8.5228412121       -4.5320314987  W2        1023            0.0000000000
      3069      1023  TIP3      H2             -0.6734471434       -8.6393312121       -5.6579114987  W2        1023            0.0000000000
      3070      1024  TIP3      OH2            -4.4088771434        5.2251187879       -8.1049714987  W2        1024            0.0000000000
      3071      1024  TIP3      H1             -4.2480071434        6.0248687879       -8.6057114987  W2        1024            0.0000000000
      3072      1024  TIP3      H2             -4.6060971434        5.5317187879       -7.2199114987  W2        1024            0.0000000000
      3073      1025  TIP3      OH2            -5.6744371434       -8.0769612121       -8.4892114987  W2        1025            0.0000000000
      3074      1025  TIP3      H1             -5.7579571434       -7.1886512121       -8.1425714987  W2        1025            0.0000000000
      3075      1025  TIP3      H2             -4.7844071434       -8.3422912121       -8.2575314987  W2        1025            0.0000000000
      3076      1026  TIP3      OH2             4.5244128566       -7.3279012121        3.9050585013  W2        1026            0.0000000000
      3077      1026  TIP3      H1              3.6079928566       -7.0657312121        3.8174285013  W2        1026            0.0000000000
      3078      1026  TIP3      H2              4.8599128566       -7.3310012121        3.0085885013  W2        1026            0.0000000000
      3079      1027  TIP3      OH2             3.1265128566       -3.5778012121       -1.9992114987  W2        1027            0.0000000000
      3080      1027  TIP3      H1              2.3289528566       -3.9927812121       -2.3277114987  W2        1027            0.0000000000
      3081      1027  TIP3      H2              3.5716228566       -4.2684312121       -1.5081614987  W2        1027            0.0000000000
      3082      1028  TIP3      OH2            -7.4159071434        2.3502587879       -9.4287614987  W2        1028            0.0000000000
      3083      1028  TIP3      H1             -6.8237571434        3.0497387879       -9.1525214987  W2        1028            0.0000000000
      3084      1028  TIP3      H2             -6.9566071434        1.9172087879      -10.1483014987  W2        1028            0.0000000000
      3085      1029  TIP3      OH2            -9.0999871434       -4.9854412121      -10.3128214987  W2        1029            0.0000000000
      3086      1029  TIP3      H1             -9.1447271434       -4.0461312121      -10.1341214987  W2        1029            0.0000000000
      3087      1029  TIP3      H2             -9.9876671434       -5.2209512121      -10.5826114987  W2        1029            0.0000000000
      3088      1030  TIP3      OH2             4.2129728566        5.6784487879       -0.3768614987  W2        1030            0.0000000000
      3089      1030  TIP3      H1              4.0574028566        6.3568887879       -1.0339314987  W2        1030            0.0000000000
      3090      1030  TIP3      H2              5.1456128566        5.7503787879       -0.1738014987  W2        1030            0.0000000000
      3091      1031  TIP3      OH2            -8.2917871434      -10.2037812121       -1.6397214987  W2        1031            0.0000000000
      3092      1031  TIP3      H1             -8.5208071434      -10.1445312121       -2.5672214987  W2        1031            0.0000000000
      3093      1031  TIP3      H2             -8.7344471434      -10.9952312121       -1.3333114987  W2        1031            0.0000000000
      3094      1032  TIP3      OH2            -9.3614571434        3.7369287879       -5.4791414987  W2        1032            0.0000000000
      3095      1032  TIP3      H1            -10.1935971434        4.2091987879       -5.4520014987  W2        1032            0.0000000000
      3096      1032  TIP3      H2             -8.8156271434        4.2466887879       -6.0778314987  W2        1032            0.0000000000
      3097      1033  TIP3      OH2           -10.0730871434        6.3492987879        5.8506585013  W2        1033            0.0000000000
      3098      1033  TIP3      H1             -9.5328671434        6.1326987879        6.6105785013  W2        1033            0.0000000000
      3099      1033  TIP3      H2            -10.5542871434        5.5438987879        5.6609085013  W2        1033            0.0000000000
      3100      1034  TIP3      OH2            -5.4757471434        5.2687387879        7.4710785013  W2        1034            0.0000000000
      3101      1034  TIP3      H1             -4.7080271434        4.8098187879        7.8119985013  W2        1034            0.0000000000
      3102      1034  TIP3      H2             -5.4971271434        5.0427187879        6.5411985013  W2        1034            0.0000000000
      3103      1035  TIP3      OH2            -1.3837871434        4.7767987879      -11.1537414987  W2        1035            0.0000000000
      3104      1035  TIP3      H1             -2.0276871434        4.1456587879      -10.8323714987  W2        1035            0.0000000000
      3105      1035  TIP3      H2             -0.6219571434        4.2455987879      -11.3853914987  W2        1035            0.0000000000
      3106      1036  TIP3      OH2             1.1011228566        3.6488487879        6.2002285013  W2        1036            0.0000000000
      3107      1036  TIP3      H1              0.7500728566        2.7921487879        6.4432685013  W2        1036            0.0000000000
      3108      1036  TIP3      H2              1.8274428566        3.7915187879        6.8071285013  W2        1036            0.0000000000
      3109      1037  TIP3      OH2             3.2205028566        4.5937887879      -10.9199414987  W2        1037            0.0000000000
      3110      1037  TIP3      H1              3.5035428566        3.7993087879      -10.4672514987  W2        1037            0.0000000000
      3111      1037  TIP3      H2              3.9602928566        4.8268887879      -11.4808314987  W2        1037            0.0000000000
      3112      1038  TIP3      OH2           -10.1661371434        0.1597087879        6.8050885013  W2        1038            0.0000000000
      3113      1038  TIP3      H1            -10.0220871434       -0.7422212121        6.5187585013  W2        1038            0.0000000000
      3114      1038  TIP3      H2            -10.9383971434        0.4459187879        6.3173185013  W2        1038            0.0000000000
      3115      1039  TIP3      OH2            -5.8247671434        0.5032787879      -11.0624514987  W2        1039            0.0000000000
      3116      1039  TIP3      H1             -5.7603571434       -0.2907612121      -10.5318114987  W2        1039            0.0000000000
      3117      1039  TIP3      H2             -5.1718471434        0.3845587879      -11.7522514987  W2        1039            0.0000000000
      3118      1040  TIP3      OH2            -3.5105271434        0.1295187879        6.2377285013  W2        1040            0.0000000000
      3119      1040  TIP3      H1             -3.8391471434        0.4003287879        5.3804685013  W2        1040            0.0000000000
      3120      1040  TIP3      H2             -3.3587071434       -0.8115012121        6.1502285013  W2        1040            0.0000000000
      3121      1041  TIP3      OH2            -0.4724271434        1.5504487879      -11.3266514987  W2        1041            0.0000000000
      3122      1041  TIP3      H1             -0.7410171434        1.7306587879      -10.4257614987  W2        1041            0.0000000000
      3123      1041  TIP3      H2             -0.6788671434        0.6250687879      -11.4580714987  W2        1041            0.0000000000
      3124      1042  TIP3      OH2             2.2239928566        0.0452487879        3.6209585013  W2        1042            0.0000000000
      3125      1042  TIP3      H1              2.9694728566        0.6336187879        3.5013585013  W2        1042            0.0000000000
      3126      1042  TIP3      H2              1.4666728566        0.6272187879        3.6842685013  W2        1042            0.0000000000
      3127      1043  TIP3      OH2            -9.3334871434       -2.6399612121        6.2250185013  W2        1043            0.0000000000
      3128      1043  TIP3      H1             -8.9253671434       -3.4973012121        6.1040785013  W2        1043            0.0000000000
      3129      1043  TIP3      H2             -9.5937271434       -2.6258312121        7.1460485013  W2        1043            0.0000000000
      3130      1044  TIP3      OH2            -4.6753871434       -1.5241012121       -8.7566514987  W2        1044            0.0000000000
      3131      1044  TIP3      H1             -5.1351871434       -2.0082712121       -8.0708014987  W2        1044            0.0000000000
      3132      1044  TIP3      H2             -4.4205171434       -2.1925612121       -9.3926014987  W2        1044            0.0000000000
      3133      1045  TIP3      OH2            -5.3864571434       -3.6313912121        3.5993085013  W2        1045            0.0000000000
      3134      1045  TIP3      H1             -6.0048471434       -2.9567312121        3.8797785013  W2        1045            0.0000000000
      3135      1045  TIP3      H2             -5.0423371434       -3.3100012121        2.7659285013  W2        1045            0.0000000000
      3136      1046  TIP3      OH2            -3.6043471434       -3.2809212121      -10.4943314987  W2        1046            0.0000000000
      3137      1046  TIP3      H1             -3.7848471434       -3.4358012121      -11.4215014987  W2        1046            0.0000000000
      3138      1046  TIP3      H2             -2.6542971434       -3.1730512121      -10.4495414987  W2        1046            0.0000000000
      3139      1047  TIP3      OH2            -0.3666371434       -1.1598612121        6.8767885013  W2        1047            0.0000000000
      3140      1047  TIP3      H1              0.5864828566       -1.0759512121        6.8493885013  W2        1047            0.0000000000
      3141      1047  TIP3      H2             -0.5271771434       -1.8716812121        7.4962785013  W2        1047            0.0000000000
      3142      1048  TIP3      OH2             5.7854828566       -0.9265012121      -11.0485214987  W2        1048            0.0000000000
      3143      1048  TIP3      H1              5.5119628566       -1.3509512121      -11.8616914987  W2        1048            0.0000000000
      3144      1048  TIP3      H2              5.8248928566        0.0049487879      -11.2654814987  W2        1048            0.0000000000
      3145      1049  TIP3      OH2            -5.0470871434       -6.2763112121        4.6816185013  W2        1049            0.0000000000
      3146      1049  TIP3      H1             -4.8969971434       -7.0051812121        4.0795885013  W2        1049            0.0000000000
      3147      1049  TIP3      H2             -5.0448471434       -5.4991412121        4.1228385013  W2        1049            0.0000000000
      3148      1050  TIP3      OH2            -4.6345171434       -7.9067312121        2.1743585013  W2        1050            0.0000000000
      3149      1050  TIP3      H1             -4.0987671434       -7.4550612121        1.5222885013  W2        1050            0.0000000000
      3150      1050  TIP3      H2             -5.4865571434       -8.0147512121        1.7517685013  W2        1050            0.0000000000
      3151      1051  TIP3      OH2            -3.0526771434       -2.4671112121        2.4138785013  W2        1051            0.0000000000
      3152      1051  TIP3      H1             -2.3021971434       -2.6233612121        1.8406585013  W2        1051            0.0000000000
      3153      1051  TIP3      H2             -3.3918471434       -1.6154512121        2.1384285013  W2        1051            0.0000000000
      3154      1052  TIP3      OH2             1.3629428566       -4.6519312121        7.4424085013  W2        1052            0.0000000000
      3155      1052  TIP3      H1              1.5550728566       -5.5829912121        7.3308585013  W2        1052            0.0000000000
      3156      1052  TIP3      H2              2.2205728566       -4.2269812121        7.4319485013  W2        1052            0.0000000000
      3157      1053  TIP3      OH2             2.6796628566       -1.8634112121        5.5196785013  W2        1053            0.0000000000
      3158      1053  TIP3      H1              2.3981628566       -1.1539512121        4.9420585013  W2        1053            0.0000000000
      3159      1053  TIP3      H2              3.6220928566       -1.9361112121        5.3687985013  W2        1053            0.0000000000
      3160      1054  TIP3      OH2            -6.5684571434       -5.0779612121        6.5931785013  W2        1054            0.0000000000
      3161      1054  TIP3      H1             -7.3355571434       -5.6104812121        6.3829385013  W2        1054            0.0000000000
      3162      1054  TIP3      H2             -5.8895571434       -5.3879212121        5.9938085013  W2        1054            0.0000000000
      3163      1055  TIP3      OH2            -3.8289671434      -10.4501612121        2.6057185013  W2        1055            0.0000000000
      3164      1055  TIP3      H1             -3.9270071434       -9.5038412121        2.5003385013  W2        1055            0.0000000000
      3165      1055  TIP3      H2             -4.5713471434      -10.8227812121        2.1300685013  W2        1055            0.0000000000
      3166      1056  TIP3      OH2            -2.5649171434       -6.1286212121        6.1695585013  W2        1056            0.0000000000
      3167      1056  TIP3      H1             -2.8003771434       -6.3479512121        7.0710485013  W2        1056            0.0000000000
      3168      1056  TIP3      H2             -3.3482271434       -6.3355012121        5.6598085013  W2        1056            0.0000000000
      3169      1057  TIP3      OH2             0.1507428566       -7.0012712121        5.2449085013  W2        1057            0.0000000000
      3170      1057  TIP3      H1             -0.7967171434       -6.9693012121        5.3772385013  W2        1057            0.0000000000
      3171      1057  TIP3      H2              0.4634128566       -7.6265612121        5.8987285013  W2        1057            0.0000000000
      3172      1058  TIP3      OH2             1.7848928566       -8.3671612121        7.2500985013  W2        1058            0.0000000000
      3173      1058  TIP3      H1              1.6880728566       -9.3194312121        7.2442885013  W2        1058            0.0000000000
      3174      1058  TIP3      H2              1.4632028566       -8.0984812121        8.1106485013  W2        1058            0.0000000000
      3175      1059  TIP3      OH2            -8.3881771434       -7.1575812121        6.2976485013  W2        1059            0.0000000000
      3176      1059  TIP3      H1             -8.1764371434       -7.8639712121        5.6873985013  W2        1059            0.0000000000
      3177      1059  TIP3      H2             -8.4994271434       -7.5949812121        7.1417685013  W2        1059            0.0000000000
      3178      1060  TIP3      OH2            -3.6071571434      -11.1564212121        5.2769985013  W2        1060            0.0000000000
      3179      1060  TIP3      H1             -2.8953171434      -11.7962012121        5.2629085013  W2        1060            0.0000000000
      3180      1060  TIP3      H2             -3.7081171434      -10.8895912121        4.3633085013  W2        1060            0.0000000000
      3181      1061  TIP3      OH2            -3.2534071434       -9.4735812121        7.3306285013  W2        1061            0.0000000000
      3182      1061  TIP3      H1             -3.3851871434       -9.9492012121        6.5104785013  W2        1061            0.0000000000
      3183      1061  TIP3      H2             -3.8526671434       -8.7292212121        7.2753385013  W2        1061            0.0000000000
      3184      1062  TIP3      OH2            -3.7071771434        7.4094487879       -9.4929714987  W2        1062            0.0000000000
      3185      1062  TIP3      H1             -2.7741071434        7.5673187879       -9.3491314987  W2        1062            0.0000000000
      3186      1062  TIP3      H2             -3.9712971434        8.0847487879      -10.1178214987  W2        1062            0.0000000000
      3187      1063  TIP3      OH2           -10.1386871434        2.0458287879      -10.0101614987  W2        1063            0.0000000000
      3188      1063  TIP3      H1             -9.2247671434        2.1247187879       -9.7367714987  W2        1063            0.0000000000
      3189      1063  TIP3      H2            -10.1313771434        1.3587887879      -10.6766014987  W2        1063            0.0000000000
      3190      1064  TIP3      OH2           -11.4896271434        7.4386787879       -4.9327714987  W2        1064            0.0000000000
      3191      1064  TIP3      H1            -12.1369171434        6.9768487879       -5.4656514987  W2        1064            0.0000000000
      3192      1064  TIP3      H2            -11.1351671434        6.7670087879       -4.3501514987  W2        1064            0.0000000000
      3193      1065  TIP3      OH2           -10.6197071434        5.5193787879       -3.1281514987  W2        1065            0.0000000000
      3194      1065  TIP3      H1            -10.9540271434        4.6391087879       -2.9561314987  W2        1065            0.0000000000
      3195      1065  TIP3      H2            -10.3974671434        5.8648787879       -2.2635914987  W2        1065            0.0000000000
      3196      1066  TIP3      OH2             6.9287728566        6.3290187879       -0.1476714987  W2        1066            0.0000000000
      3197      1066  TIP3      H1              6.9074428566        6.5138587879        0.7912685013  W2        1066            0.0000000000
      3198      1066  TIP3      H2              7.6193928566        6.8974187879       -0.4885314987  W2        1066            0.0000000000
      3199      1067  TIP3      OH2             6.4920628566        5.8961287879        2.7742385013  W2        1067            0.0000000000
      3200      1067  TIP3      H1              6.0049328566        5.1605387879        2.4029785013  W2        1067            0.0000000000
      3201      1067  TIP3      H2              7.0413328566        5.5025187879        3.4521785013  W2        1067            0.0000000000
      3202      1068  TIP3      OH2             4.9427928566        1.6859387879        7.4122685013  W2        1068            0.0000000000
      3203      1068  TIP3      H1              4.0769028566        1.5809087879        7.8064985013  W2        1068            0.0000000000
      3204      1068  TIP3      H2              5.3193828566        2.4442687879        7.8587385013  W2        1068            0.0000000000
      3205      1069  TIP3      OH2             6.2437628566       -0.0576912121       -7.0734814987  W2        1069            0.0000000000
      3206      1069  TIP3      H1              7.0939028566        0.3633987879       -6.9463214987  W2        1069            0.0000000000
      3207      1069  TIP3      H2              6.2492728566       -0.7976812121       -6.4663414987  W2        1069            0.0000000000
      3208      1070  TIP3      OH2             6.6383228566       -2.0039512121       -5.2499114987  W2        1070            0.0000000000
      3209      1070  TIP3      H1              5.9117828566       -2.4836912121       -4.8521514987  W2        1070            0.0000000000
      3210      1070  TIP3      H2              7.2196528566       -1.7984812121       -4.5177514987  W2        1070            0.0000000000
      3211      1071  TIP3      OH2             6.3974428566        0.7807987879       -0.3021514987  W2        1071            0.0000000000
      3212      1071  TIP3      H1              7.2308628566        0.4027987879       -0.5827914987  W2        1071            0.0000000000
      3213      1071  TIP3      H2              6.5094728566        1.7239187879       -0.4212414987  W2        1071            0.0000000000
      3214      1072  TIP3      OH2             4.8836728566        3.6585487879        2.0046885013  W2        1072            0.0000000000
      3215      1072  TIP3      H1              4.2362028566        3.9836987879        2.6302085013  W2        1072            0.0000000000
      3216      1072  TIP3      H2              4.3660728566        3.2183187879        1.3305185013  W2        1072            0.0000000000
      3217      1073  TIP3      OH2             6.9066328566       -2.1031012121       -8.8587814987  W2        1073            0.0000000000
      3218      1073  TIP3      H1              6.3847428566       -1.7466912121       -9.5776914987  W2        1073            0.0000000000
      3219      1073  TIP3      H2              6.8735528566       -1.4283212121       -8.1806914987  W2        1073            0.0000000000
      3220      1074  TIP3      OH2             5.2555328566       -4.8635412121      -10.3080714987  W2        1074            0.0000000000
      3221      1074  TIP3      H1              5.3519728566       -4.1968412121      -10.9881014987  W2        1074            0.0000000000
      3222      1074  TIP3      H2              5.1154928566       -5.6789112121      -10.7895214987  W2        1074            0.0000000000
      3223      1075  TIP3      OH2             4.4250028566       -3.4833012121       -4.6870414987  W2        1075            0.0000000000
      3224      1075  TIP3      H1              4.2748828566       -4.4284412121       -4.7072614987  W2        1075            0.0000000000
      3225      1075  TIP3      H2              4.0714528566       -3.2021612121       -3.8431314987  W2        1075            0.0000000000
      3226      1076  TIP3      OH2           -10.5397571434       -1.4050812121       -0.6766614987  W2        1076            0.0000000000
      3227      1076  TIP3      H1            -10.3554671434       -1.4869112121       -1.6123714987  W2        1076            0.0000000000
      3228      1076  TIP3      H2             -9.6904671434       -1.5293812121       -0.2530214987  W2        1076            0.0000000000
      3229      1077  TIP3      OH2             5.2812928566       -1.5129712121        4.9517885013  W2        1077            0.0000000000
      3230      1077  TIP3      H1              5.8640228566       -2.2477412121        5.1435085013  W2        1077            0.0000000000
      3231      1077  TIP3      H2              5.8452228566       -0.7409412121        4.9983685013  W2        1077            0.0000000000
      3232      1078  TIP3      OH2             6.7780028566       -3.6103912121        5.6363285013  W2        1078            0.0000000000
      3233      1078  TIP3      H1              5.9146728566       -3.9891812121        5.4707985013  W2        1078            0.0000000000
      3234      1078  TIP3      H2              7.3823728566       -4.3489112121        5.5619085013  W2        1078            0.0000000000
      3235      1079  TIP3      OH2             4.5029128566       -7.4555612121      -11.1905214987  W2        1079            0.0000000000
      3236      1079  TIP3      H1              5.1134928566       -7.8268812121      -10.5537014987  W2        1079            0.0000000000
      3237      1079  TIP3      H2              3.6660628566       -7.8768712121      -10.9945214987  W2        1079            0.0000000000
      3238      1080  TIP3      OH2             4.1354828566       -5.9007212121       -6.2245314987  W2        1080            0.0000000000
      3239      1080  TIP3      H1              4.4151928566       -6.8076812121       -6.1003614987  W2        1080            0.0000000000
      3240      1080  TIP3      H2              4.8946528566       -5.4665712121       -6.6136114987  W2        1080            0.0000000000
      3241      1081  TIP3      OH2             4.7473128566       -5.3189812121       -0.7886414987  W2        1081            0.0000000000
      3242      1081  TIP3      H1              5.6801128566       -5.1069912121       -0.8230414987  W2        1081            0.0000000000
      3243      1081  TIP3      H2              4.5120628566       -5.2177712121        0.1336585013  W2        1081            0.0000000000
      3244      1082  TIP3      OH2             4.7765028566       -4.5824512121        1.9872985013  W2        1082            0.0000000000
      3245      1082  TIP3      H1              3.9336328566       -4.3144112121        2.3532785013  W2        1082            0.0000000000
      3246      1082  TIP3      H2              5.2189328566       -3.7602612121        1.7764085013  W2        1082            0.0000000000
      3247      1083  TIP3      OH2           -10.9422771434       -6.1345812121        5.4642185013  W2        1083            0.0000000000
      3248      1083  TIP3      H1            -10.0227871434       -6.2567512121        5.7005285013  W2        1083            0.0000000000
      3249      1083  TIP3      H2            -11.3918271434       -6.8846112121        5.8535685013  W2        1083            0.0000000000
      3250      1084  TIP3      OH2             7.0596628566      -10.6024312121        7.3407985013  W2        1084            0.0000000000
      3251      1084  TIP3      H1              7.4093628566      -11.2560812121        6.7352685013  W2        1084            0.0000000000
      3252      1084  TIP3      H2              7.2066128566       -9.7650212121        6.9010585013  W2        1084            0.0000000000
      3253      1085  TIP3      OH2             4.7489628566       -8.6377912121       -6.1763314987  W2        1085            0.0000000000
      3254      1085  TIP3      H1              4.9314628566       -9.0866412121       -5.3508314987  W2        1085            0.0000000000
      3255      1085  TIP3      H2              4.1492528566       -9.2223512121       -6.6398714987  W2        1085            0.0000000000
      3256      1086  TIP3      OH2            -9.7210271434       -7.8224212121       -1.6444914987  W2        1086            0.0000000000
      3257      1086  TIP3      H1             -9.2758671434       -8.6141712121       -1.3425214987  W2        1086            0.0000000000
      3258      1086  TIP3      H2             -9.2547271434       -7.1059012121       -1.2139314987  W2        1086            0.0000000000
      3259      1087  TIP3      OH2           -11.4169971434       -4.8231212121       -0.5754714987  W2        1087            0.0000000000
      3260      1087  TIP3      H1            -10.9250171434       -5.0440712121       -1.3662714987  W2        1087            0.0000000000
      3261      1087  TIP3      H2            -11.0549071434       -3.9827812121       -0.2945214987  W2        1087            0.0000000000
      3262      1088  TIP3      OH2             6.5793828566       -8.4929712121        5.6899285013  W2        1088            0.0000000000
      3263      1088  TIP3      H1              5.6619528566       -8.2222612121        5.6542785013  W2        1088            0.0000000000
      3264      1088  TIP3      H2              6.7023228566       -9.0281312121        4.9058985013  W2        1088            0.0000000000
      3265      1089  TIP3      OH2             6.6155828566       -8.5699812121       -9.6483014987  W2        1089            0.0000000000
      3266      1089  TIP3      H1              7.0278428566       -9.2914112121      -10.1235014987  W2        1089            0.0000000000
      3267      1089  TIP3      H2              7.2972328566       -7.9005212121       -9.5898714987  W2        1089            0.0000000000
      3268      1090  TIP3      OH2           -11.1033471434       -8.5652112121       -6.5212314987  W2        1090            0.0000000000
      3269      1090  TIP3      H1            -12.0285071434       -8.3565512121       -6.6506814987  W2        1090            0.0000000000
      3270      1090  TIP3      H2            -10.6493571434       -8.0811312121       -7.2110014987  W2        1090            0.0000000000
      3271      1091  TIP3      OH2             3.6673728566        6.4189587879       -4.5754914987  W2        1091            0.0000000000
      3272      1091  TIP3      H1              4.3196628566        6.0711687879       -5.1835814987  W2        1091            0.0000000000
      3273      1091  TIP3      H2              4.1777528566        6.9072787879       -3.9295214987  W2        1091            0.0000000000
      3274      1092  TIP3      OH2           -11.1398071434       -9.8273112121        1.8230185013  W2        1092            0.0000000000
      3275      1092  TIP3      H1            -11.8047571434      -10.0732812121        2.4661085013  W2        1092            0.0000000000
      3276      1092  TIP3      H2            -11.5826771434       -9.2052712121        1.2458185013  W2        1092            0.0000000000
      3277      1093  TIP3      OH2            -8.9478771434        3.3480987879        5.9675985013  W2        1093            0.0000000000
      3278      1093  TIP3      H1             -9.7686271434        3.5227487879        5.5070685013  W2        1093            0.0000000000
      3279      1093  TIP3      H2             -9.2000971434        3.2745687879        6.8880385013  W2        1093            0.0000000000
      3280      1094  TIP3      OH2            -5.9935871434        4.3222187879        2.2259985013  W2        1094            0.0000000000
      3281      1094  TIP3      H1             -6.4184771434        5.1320687879        1.9434585013  W2        1094            0.0000000000
      3282      1094  TIP3      H2             -5.0893071434        4.4076287879        1.9239785013  W2        1094            0.0000000000
      3283      1095  TIP3      OH2            -1.6824471434        5.7212187879        5.1853685013  W2        1095            0.0000000000
      3284      1095  TIP3      H1             -1.4976971434        5.3878287879        6.0633985013  W2        1095            0.0000000000
      3285      1095  TIP3      H2             -0.8359971434        6.0310787879        4.8632885013  W2        1095            0.0000000000
      3286      1096  TIP3      OH2             0.6625928566        7.0071087879        4.4295085013  W2        1096            0.0000000000
      3287      1096  TIP3      H1              1.3394828566        6.3743387879        4.1894285013  W2        1096            0.0000000000
      3288      1096  TIP3      H2              0.9844728566        7.4081587879        5.2368385013  W2        1096            0.0000000000
      3289      1097  TIP3      OH2             5.5799728566      -10.4033412121        3.5090085013  W2        1097            0.0000000000
      3290      1097  TIP3      H1              4.7673228566      -10.0783112121        3.1214785013  W2        1097            0.0000000000
      3291      1097  TIP3      H2              5.8128228566      -11.1634912121        2.9759185013  W2        1097            0.0000000000
      3292      1098  TIP3      OH2            -8.5919171434        7.5786087879        2.2735285013  W2        1098            0.0000000000
      3293      1098  TIP3      H1             -9.3122771434        8.0187087879        1.8222985013  W2        1098            0.0000000000
      3294      1098  TIP3      H2             -8.9575171434        7.3280787879        3.1219285013  W2        1098            0.0000000000
      3295      1099  TIP3      OH2            -6.1246571434        7.1789987879        1.3032485013  W2        1099            0.0000000000
      3296      1099  TIP3      H1             -6.9894371434        7.2508487879        1.7072585013  W2        1099            0.0000000000
      3297      1099  TIP3      H2             -6.1797571434        7.7257287879        0.5194985013  W2        1099            0.0000000000
      3298      1100  TIP3      OH2            -1.4140971434        7.0668887879        0.4788485013  W2        1100            0.0000000000
      3299      1100  TIP3      H1             -1.8706971434        7.5958587879       -0.1753114987  W2        1100            0.0000000000
      3300      1100  TIP3      H2             -1.2512971434        7.6700287879        1.2040785013  W2        1100            0.0000000000
      3301      1101  TIP3      OH2             0.9135328566        5.9448487879        1.4238785013  W2        1101            0.0000000000
      3302      1101  TIP3      H1              0.0089028566        6.1098687879        1.1580885013  W2        1101            0.0000000000
      3303      1101  TIP3      H2              1.3423928566        6.7980687879        1.3582185013  W2        1101            0.0000000000
      3304      1102  TIP3      OH2             3.5177228566        7.5147587879        1.7186585013  W2        1102            0.0000000000
      3305      1102  TIP3      H1              3.3359228566        8.4306487879        1.5081485013  W2        1102            0.0000000000
      3306      1102  TIP3      H2              3.6945028566        7.1044687879        0.8721185013  W2        1102            0.0000000000
      3307      1103  TIP3      OH2            -9.1771071434        6.2018587879       -0.8162914987  W2        1103            0.0000000000
      3308      1103  TIP3      H1             -9.1955071434        5.7763687879        0.0409385013  W2        1103            0.0000000000
      3309      1103  TIP3      H2             -8.3723171434        5.8833587879       -1.2250714987  W2        1103            0.0000000000
      3310      1104  TIP3      OH2            -7.0357971434        4.9117287879       -2.1613014987  W2        1104            0.0000000000
      3311      1104  TIP3      H1             -7.2547271434        3.9954687879       -1.9917014987  W2        1104            0.0000000000
      3312      1104  TIP3      H2             -6.2115771434        5.0517687879       -1.6951614987  W2        1104            0.0000000000
      3313      1105  TIP3      OH2            -4.4985471434        5.3816587879       -1.3125014987  W2        1105            0.0000000000
      3314      1105  TIP3      H1             -4.2859771434        4.4935587879       -1.5994114987  W2        1105            0.0000000000
      3315      1105  TIP3      H2             -4.4340371434        5.3474287879       -0.3581014987  W2        1105            0.0000000000
      3316      1106  TIP3      OH2            -0.9901771434       -8.9542812121       -2.1681714987  W2        1106            0.0000000000
      3317      1106  TIP3      H1             -1.6644971434       -9.5837212121       -1.9125914987  W2        1106            0.0000000000
      3318      1106  TIP3      H2             -0.4262571434       -9.4383912121       -2.7713814987  W2        1106            0.0000000000
      3319      1107  TIP3      OH2             4.1525428566      -10.8468812121       -2.0554614987  W2        1107            0.0000000000
      3320      1107  TIP3      H1              4.7563028566      -10.2993412121       -2.5573614987  W2        1107            0.0000000000
      3321      1107  TIP3      H2              3.2827428566      -10.5278412121       -2.2960514987  W2        1107            0.0000000000
      3322      1108  TIP3      OH2             5.8795828566       -9.7080112121       -3.7223714987  W2        1108            0.0000000000
      3323      1108  TIP3      H1              6.4913328566      -10.2224412121       -4.2490114987  W2        1108            0.0000000000
      3324      1108  TIP3      H2              6.2619228566       -8.8308012121       -3.6989314987  W2        1108            0.0000000000
      3325      1109  TIP3      OH2            -8.6634271434      -10.3202512121       -4.3461814987  W2        1109            0.0000000000
      3326      1109  TIP3      H1             -9.4404471434      -10.5547612121       -4.8535914987  W2        1109            0.0000000000
      3327      1109  TIP3      H2             -8.1330671434      -11.1170412121       -4.3373814987  W2        1109            0.0000000000
      3328      1110  TIP3      OH2            -9.8270871434      -10.5224412121       -8.5425714987  W2        1110            0.0000000000
      3329      1110  TIP3      H1             -9.3880171434       -9.9113912121       -9.1342214987  W2        1110            0.0000000000
      3330      1110  TIP3      H2            -10.4608471434       -9.9840312121       -8.0685714987  W2        1110            0.0000000000
      3331      1111  TIP3      OH2            -4.0841671434      -10.3935412121       -4.5328714987  W2        1111            0.0000000000
      3332      1111  TIP3      H1             -3.2098271434      -10.0051112121       -4.5624414987  W2        1111            0.0000000000
      3333      1111  TIP3      H2             -4.2200871434      -10.6087612121       -3.6101514987  W2        1111            0.0000000000
      3334      1112  TIP3      OH2             1.4726728566      -10.3635612121       -2.8837014987  W2        1112            0.0000000000
      3335      1112  TIP3      H1              1.5488328566      -10.2684012121       -3.8331014987  W2        1112            0.0000000000
      3336      1112  TIP3      H2              1.1975928566      -11.2712712121       -2.7547914987  W2        1112            0.0000000000
      3337      1113  TIP3      OH2             2.8259328566      -10.3377812121       -7.1912014987  W2        1113            0.0000000000
      3338      1113  TIP3      H1              2.1230428566       -9.7228612121       -7.4010614987  W2        1113            0.0000000000
      3339      1113  TIP3      H2              2.3810728566      -11.1751112121       -7.0601114987  W2        1113            0.0000000000
      3340      1114  TIP3      OH2            -9.9261371434        5.4257787879       -7.6450614987  W2        1114            0.0000000000
      3341      1114  TIP3      H1            -10.6111471434        5.3876687879       -8.3125514987  W2        1114            0.0000000000
      3342      1114  TIP3      H2             -9.9224171434        6.3385387879       -7.3568514987  W2        1114            0.0000000000
      3343      1115  TIP3      OH2            -7.9661771434       -8.6062912121      -10.1001614987  W2        1115            0.0000000000
      3344      1115  TIP3      H1             -7.4748371434       -9.2360512121      -10.6276114987  W2        1115            0.0000000000
      3345      1115  TIP3      H2             -7.3425471434       -8.3103512121       -9.4370414987  W2        1115            0.0000000000
      3346      1116  TIP3      OH2            -2.9401671434       -8.3131412121       -7.6431114987  W2        1116            0.0000000000
      3347      1116  TIP3      H1             -2.7620371434       -8.9598212121       -6.9602514987  W2        1116            0.0000000000
      3348      1116  TIP3      H2             -2.9935471434       -7.4793712121       -7.1760014987  W2        1116            0.0000000000
      3349      1117  TIP3      OH2            -1.0617871434        6.6352687879       -9.2474414987  W2        1117            0.0000000000
      3350      1117  TIP3      H1             -0.1957671434        7.0020087879       -9.4256214987  W2        1117            0.0000000000
      3351      1117  TIP3      H2             -1.3085071434        6.1960687879      -10.0613614987  W2        1117            0.0000000000
      3352      1118  TIP3      OH2             5.6471728566        6.1982987879       -6.5683314987  W2        1118            0.0000000000
      3353      1118  TIP3      H1              5.4528828566        5.4505087879       -7.1333714987  W2        1118            0.0000000000
      3354      1118  TIP3      H2              5.6081828566        6.9563087879       -7.1515414987  W2        1118            0.0000000000
      3355      1119  TIP3      OH2            -8.7056271434       -9.8060612121        5.1714385013  W2        1119            0.0000000000
      3356      1119  TIP3      H1             -9.0718071434      -10.5718012121        5.6139085013  W2        1119            0.0000000000
      3357      1119  TIP3      H2             -7.7927771434       -9.7770412121        5.4579485013  W2        1119            0.0000000000
      3358      1120  TIP3      OH2            -6.7325471434      -10.4556212121        6.7071485013  W2        1120            0.0000000000
      3359      1120  TIP3      H1             -5.8341871434      -10.7296012121        6.5224885013  W2        1120            0.0000000000
      3360      1120  TIP3      H2             -7.1192371434      -11.1980212121        7.1714085013  W2        1120            0.0000000000
      3361      1121  TIP3      OH2            -8.1080171434        6.3458587879      -10.6198514987  W2        1121            0.0000000000
      3362      1121  TIP3      H1             -8.3755571434        6.6321487879       -9.7465414987  W2        1121            0.0000000000
      3363      1121  TIP3      H2             -7.3367571434        5.7997787879      -10.4676014987  W2        1121            0.0000000000
      3364      1122  TIP3      OH2             1.6886828566      -11.1230912121        6.8894285013  W2        1122            0.0000000000
      3365      1122  TIP3      H1              1.7654028566      -11.5490212121        7.7431985013  W2        1122            0.0000000000
      3366      1122  TIP3      H2              2.5823428566      -11.1096212121        6.5467785013  W2        1122            0.0000000000
      3367      1123  TIP3      OH2             4.8647928566        4.9495387879        5.5818485013  W2        1123            0.0000000000
      3368      1123  TIP3      H1              4.0829828566        4.7633387879        5.0619085013  W2        1123            0.0000000000
      3369      1123  TIP3      H2              4.7927828566        5.8789687879        5.7990985013  W2        1123            0.0000000000
      3370      1124  TIP3      OH2            19.2708328566       -1.1640212121       -4.3874314987  W2        1124            0.0000000000
      3371      1124  TIP3      H1             19.3599428566       -0.2202012121       -4.5197214987  W2        1124            0.0000000000
      3372      1124  TIP3      H2             18.6325928566       -1.4393812121       -5.0454914987  W2        1124            0.0000000000
      3373      1125  TIP3      OH2            18.2039628566       -1.9089512121       -0.9686114987  W2        1125            0.0000000000
      3374      1125  TIP3      H1             18.1657128566       -2.5553212121       -0.2636514987  W2        1125            0.0000000000
      3375      1125  TIP3      H2             17.8816128566       -2.3755112121       -1.7397414987  W2        1125            0.0000000000
      3376      1126  TIP3      OH2            10.5724628566       -2.2947412121        0.6243785013  W2        1126            0.0000000000
      3377      1126  TIP3      H1             10.6136728566       -2.9204112121        1.3476185013  W2        1126            0.0000000000
      3378      1126  TIP3      H2             11.2752328566       -1.6708812121        0.8064185013  W2        1126            0.0000000000
      3379      1127  TIP3      OH2            21.9099828566        1.0300887879       -2.6671014987  W2        1127            0.0000000000
      3380      1127  TIP3      H1             21.4692528566        0.3096887879       -2.2165414987  W2        1127            0.0000000000
      3381      1127  TIP3      H2             21.8969528566        1.7508087879       -2.0373314987  W2        1127            0.0000000000
      3382      1128  TIP3      OH2            11.4957728566        2.1551487879       -0.8407114987  W2        1128            0.0000000000
      3383      1128  TIP3      H1             11.1262928566        1.3531987879       -1.2102814987  W2        1128            0.0000000000
      3384      1128  TIP3      H2             12.4368828566        1.9866387879       -0.7943714987  W2        1128            0.0000000000
      3385      1129  TIP3      OH2             8.1058228566       -4.1845912121       -5.4478314987  W2        1129            0.0000000000
      3386      1129  TIP3      H1              7.6581628566       -3.3387212121       -5.4661814987  W2        1129            0.0000000000
      3387      1129  TIP3      H2              7.5449428566       -4.7641712121       -5.9633214987  W2        1129            0.0000000000
      3388      1130  TIP3      OH2             8.8164328566       -2.0226312121       -3.3220314987  W2        1130            0.0000000000
      3389      1130  TIP3      H1              9.0297828566       -2.7924712121       -2.7947314987  W2        1130            0.0000000000
      3390      1130  TIP3      H2              9.5541928566       -1.9329612121       -3.9252714987  W2        1130            0.0000000000
      3391      1131  TIP3      OH2            19.0215328566        6.1342587879       -2.4550614987  W2        1131            0.0000000000
      3392      1131  TIP3      H1             19.6411728566        5.4577287879       -2.7281414987  W2        1131            0.0000000000
      3393      1131  TIP3      H2             18.8132728566        5.9163387879       -1.5465714987  W2        1131            0.0000000000
      3394      1132  TIP3      OH2            16.5934028566        0.5231887879       -0.5625114987  W2        1132            0.0000000000
      3395      1132  TIP3      H1             16.8971928566       -0.1626712121       -1.1571014987  W2        1132            0.0000000000
      3396      1132  TIP3      H2             17.3148028566        0.6420587879        0.0552885013  W2        1132            0.0000000000
      3397      1133  TIP3      OH2            25.2563828566       -7.8752812121        0.2981085013  W2        1133            0.0000000000
      3398      1133  TIP3      H1             25.3056028566       -7.2651612121        1.0340185013  W2        1133            0.0000000000
      3399      1133  TIP3      H2             25.6818928566       -7.4141912121       -0.4247814987  W2        1133            0.0000000000
      3400      1134  TIP3      OH2            19.7341028566       -5.0825712121       -0.2350314987  W2        1134            0.0000000000
      3401      1134  TIP3      H1             19.8766928566       -6.0288712121       -0.2148714987  W2        1134            0.0000000000
      3402      1134  TIP3      H2             19.6280028566       -4.8755912121       -1.1635414987  W2        1134            0.0000000000
      3403      1135  TIP3      OH2            12.8889328566       -6.9809312121       -2.9625514987  W2        1135            0.0000000000
      3404      1135  TIP3      H1             12.9320428566       -6.1210812121       -3.3809214987  W2        1135            0.0000000000
      3405      1135  TIP3      H2             12.4313428566       -7.5334612121       -3.5962314987  W2        1135            0.0000000000
      3406      1136  TIP3      OH2            20.6112028566       -6.8503712121       -4.5617214987  W2        1136            0.0000000000
      3407      1136  TIP3      H1             21.2576328566       -7.1790512121       -3.9369614987  W2        1136            0.0000000000
      3408      1136  TIP3      H2             21.1211428566       -6.3324712121       -5.1845814987  W2        1136            0.0000000000
      3409      1137  TIP3      OH2             9.5090828566       -4.5843512121       -2.2004114987  W2        1137            0.0000000000
      3410      1137  TIP3      H1             10.1627428566       -5.1341812121       -1.7684014987  W2        1137            0.0000000000
      3411      1137  TIP3      H2              9.5330128566       -4.8584512121       -3.1172114987  W2        1137            0.0000000000
      3412      1138  TIP3      OH2            14.6655328566       -3.0342212121       -2.9852614987  W2        1138            0.0000000000
      3413      1138  TIP3      H1             15.2816328566       -3.5606812121       -2.4758614987  W2        1138            0.0000000000
      3414      1138  TIP3      H2             14.0794128566       -3.6743512121       -3.3889014987  W2        1138            0.0000000000
      3415      1139  TIP3      OH2            25.6478428566       -6.3973612121        2.5340885013  W2        1139            0.0000000000
      3416      1139  TIP3      H1             24.9593028566       -5.7392912121        2.4387485013  W2        1139            0.0000000000
      3417      1139  TIP3      H2             25.6633028566       -6.5945712121        3.4706285013  W2        1139            0.0000000000
      3418      1140  TIP3      OH2            11.6991228566       -8.0630912121        1.1115285013  W2        1140            0.0000000000
      3419      1140  TIP3      H1             11.4802928566       -7.5330312121        0.3451285013  W2        1140            0.0000000000
      3420      1140  TIP3      H2             11.0312128566       -7.8365412121        1.7586685013  W2        1140            0.0000000000
      3421      1141  TIP3      OH2            19.0681028566        1.4370187879       -5.3445614987  W2        1141            0.0000000000
      3422      1141  TIP3      H1             18.7726128566        1.1142487879       -6.1958714987  W2        1141            0.0000000000
      3423      1141  TIP3      H2             18.7438828566        2.3366887879       -5.3033014987  W2        1141            0.0000000000
      3424      1142  TIP3      OH2            14.2682628566       -0.3875212121        1.3988985013  W2        1142            0.0000000000
      3425      1142  TIP3      H1             13.5281728566        0.2106287879        1.5024185013  W2        1142            0.0000000000
      3426      1142  TIP3      H2             14.9822128566        0.1664387879        1.0832585013  W2        1142            0.0000000000
      3427      1143  TIP3      OH2            22.3750428566       -7.5594412121       -2.5811314987  W2        1143            0.0000000000
      3428      1143  TIP3      H1             22.1598428566       -8.3251012121       -2.0485314987  W2        1143            0.0000000000
      3429      1143  TIP3      H2             23.0307828566       -7.0869812121       -2.0682814987  W2        1143            0.0000000000
      3430      1144  TIP3      OH2            11.2928528566       -6.1709112121       -0.9362514987  W2        1144            0.0000000000
      3431      1144  TIP3      H1             11.9064828566       -5.5381512121       -0.5630114987  W2        1144            0.0000000000
      3432      1144  TIP3      H2             11.8049228566       -6.6434112121       -1.5925614987  W2        1144            0.0000000000
      3433      1145  TIP3      OH2            12.6756928566        1.5767787879        2.1860485013  W2        1145            0.0000000000
      3434      1145  TIP3      H1             12.6704528566        2.4561287879        1.8079785013  W2        1145            0.0000000000
      3435      1145  TIP3      H2             11.8221028566        1.4931887879        2.6110385013  W2        1145            0.0000000000
      3436      1146  TIP3      OH2             8.7967828566        1.2475687879       -7.0320214987  W2        1146            0.0000000000
      3437      1146  TIP3      H1              8.5248728566        1.4766687879       -7.9207314987  W2        1146            0.0000000000
      3438      1146  TIP3      H2              8.8423528566        2.0854487879       -6.5714914987  W2        1146            0.0000000000
      3439      1147  TIP3      OH2            22.4217528566        2.8691587879       -0.3191714987  W2        1147            0.0000000000
      3440      1147  TIP3      H1             21.4801228566        2.9275487879       -0.1574814987  W2        1147            0.0000000000
      3441      1147  TIP3      H2             22.6983628566        3.7752087879       -0.4562014987  W2        1147            0.0000000000
      3442      1148  TIP3      OH2            22.7224528566       -8.8443112121        1.0982185013  W2        1148            0.0000000000
      3443      1148  TIP3      H1             21.9863728566       -8.2336012121        1.0603485013  W2        1148            0.0000000000
      3444      1148  TIP3      H2             23.4058528566       -8.4294112121        0.5718585013  W2        1148            0.0000000000
      3445      1149  TIP3      OH2            15.7255928566      -10.7575812121       -1.4359814987  W2        1149            0.0000000000
      3446      1149  TIP3      H1             15.6080128566      -11.7059812121       -1.4901514987  W2        1149            0.0000000000
      3447      1149  TIP3      H2             14.8706028566      -10.4249712121       -1.1628714987  W2        1149            0.0000000000
      3448      1150  TIP3      OH2            20.6738728566        4.6505087879       -3.6940114987  W2        1150            0.0000000000
      3449      1150  TIP3      H1             21.0991028566        3.9432987879       -4.1790514987  W2        1150            0.0000000000
      3450      1150  TIP3      H2             20.9908728566        5.4517787879       -4.1107914987  W2        1150            0.0000000000
      3451      1151  TIP3      OH2            21.8335228566        2.5513587879       -5.1853514987  W2        1151            0.0000000000
      3452      1151  TIP3      H1             21.5760028566        1.8613687879       -5.7967614987  W2        1151            0.0000000000
      3453      1151  TIP3      H2             21.9046028566        2.1084787879       -4.3397614987  W2        1151            0.0000000000
      3454      1152  TIP3      OH2            23.5195428566        1.1180287879        3.2919985013  W2        1152            0.0000000000
      3455      1152  TIP3      H1             23.6591728566        0.5262787879        2.5526985013  W2        1152            0.0000000000
      3456      1152  TIP3      H2             23.6868228566        1.9906187879        2.9358785013  W2        1152            0.0000000000
      3457      1153  TIP3      OH2            17.9920828566       -1.9200212121       -6.9354014987  W2        1153            0.0000000000
      3458      1153  TIP3      H1             17.2806328566       -1.3850512121       -7.2873514987  W2        1153            0.0000000000
      3459      1153  TIP3      H2             18.6830428566       -1.8648112121       -7.5955114987  W2        1153            0.0000000000
      3460      1154  TIP3      OH2            18.0460028566       -3.4625912121       -9.8969014987  W2        1154            0.0000000000
      3461      1154  TIP3      H1             18.7469928566       -3.4399012121       -9.2455014987  W2        1154            0.0000000000
      3462      1154  TIP3      H2             18.3482928566       -4.0906212121      -10.5529714987  W2        1154            0.0000000000
      3463      1155  TIP3      OH2            25.3614728566       -2.5421712121        1.3580385013  W2        1155            0.0000000000
      3464      1155  TIP3      H1             24.7088828566       -1.8476112121        1.4471285013  W2        1155            0.0000000000
      3465      1155  TIP3      H2             25.8265028566       -2.3320812121        0.5481985013  W2        1155            0.0000000000
      3466      1156  TIP3      OH2            21.3978528566       -1.7106912121       -5.9838114987  W2        1156            0.0000000000
      3467      1156  TIP3      H1             20.6659528566       -1.4823212121       -5.4107514987  W2        1156            0.0000000000
      3468      1156  TIP3      H2             21.8450728566       -2.4244212121       -5.5290614987  W2        1156            0.0000000000
      3469      1157  TIP3      OH2            21.2952028566       -3.5364312121        3.0838885013  W2        1157            0.0000000000
      3470      1157  TIP3      H1             21.3751128566       -2.7729912121        3.6557385013  W2        1157            0.0000000000
      3471      1157  TIP3      H2             20.6939728566       -3.2571912121        2.3933985013  W2        1157            0.0000000000
      3472      1158  TIP3      OH2            13.0432228566       -1.0800712121       -4.1013114987  W2        1158            0.0000000000
      3473      1158  TIP3      H1             12.7127428566       -1.4507312121       -4.9196114987  W2        1158            0.0000000000
      3474      1158  TIP3      H2             13.6316328566       -1.7506712121       -3.7544814987  W2        1158            0.0000000000
      3475      1159  TIP3      OH2            14.4099728566        2.3479887879       -1.4200914987  W2        1159            0.0000000000
      3476      1159  TIP3      H1             14.3151028566        1.7692987879       -2.1766314987  W2        1159            0.0000000000
      3477      1159  TIP3      H2             15.1393328566        1.9765587879       -0.9238114987  W2        1159            0.0000000000
      3478      1160  TIP3      OH2            13.4097728566       -2.3115112121       -0.4678114987  W2        1160            0.0000000000
      3479      1160  TIP3      H1             13.9750228566       -2.1900912121       -1.2306914987  W2        1160            0.0000000000
      3480      1160  TIP3      H2             13.7286628566       -1.6740112121        0.1710385013  W2        1160            0.0000000000
      3481      1161  TIP3      OH2            19.7189928566        3.1916787879        0.2662385013  W2        1161            0.0000000000
      3482      1161  TIP3      H1             19.4786528566        3.8539887879        0.9141585013  W2        1161            0.0000000000
      3483      1161  TIP3      H2             19.5208128566        2.3571987879        0.6911985013  W2        1161            0.0000000000
      3484      1162  TIP3      OH2            14.2898428566        2.0877587879        4.2493785013  W2        1162            0.0000000000
      3485      1162  TIP3      H1             13.9785928566        2.8700787879        4.7046985013  W2        1162            0.0000000000
      3486      1162  TIP3      H2             13.6398628566        1.9346687879        3.5635785013  W2        1162            0.0000000000
      3487      1163  TIP3      OH2            20.2688028566       -2.5484012121       -8.2986914987  W2        1163            0.0000000000
      3488      1163  TIP3      H1             20.8483528566       -2.3983712121       -7.5518014987  W2        1163            0.0000000000
      3489      1163  TIP3      H2             20.6828028566       -2.0776612121       -9.0220514987  W2        1163            0.0000000000
      3490      1164  TIP3      OH2            11.2098328566       -1.7141312121        3.4779485013  W2        1164            0.0000000000
      3491      1164  TIP3      H1             11.2801528566       -1.0634512121        4.1764485013  W2        1164            0.0000000000
      3492      1164  TIP3      H2             10.3190528566       -1.6113812121        3.1430385013  W2        1164            0.0000000000
      3493      1165  TIP3      OH2            17.9952928566        4.1884487879       -4.8633814987  W2        1165            0.0000000000
      3494      1165  TIP3      H1             18.4690528566        4.4840787879       -4.0859614987  W2        1165            0.0000000000
      3495      1165  TIP3      H2             17.4322228566        4.9266087879       -5.0964214987  W2        1165            0.0000000000
      3496      1166  TIP3      OH2            12.5294328566        4.1592587879        5.0127585013  W2        1166            0.0000000000
      3497      1166  TIP3      H1             12.5369628566        4.0232287879        4.0653085013  W2        1166            0.0000000000
      3498      1166  TIP3      H2             11.6134728566        4.0420687879        5.2647585013  W2        1166            0.0000000000
      3499      1167  TIP3      OH2            23.9676428566      -10.7983612121       -8.4857214987  W2        1167            0.0000000000
      3500      1167  TIP3      H1             23.0677128566      -10.6594612121       -8.1906614987  W2        1167            0.0000000000
      3501      1167  TIP3      H2             24.2194828566       -9.9669012121       -8.8875514987  W2        1167            0.0000000000
      3502      1168  TIP3      OH2            12.0334928566       -2.0106412121       -6.5120314987  W2        1168            0.0000000000
      3503      1168  TIP3      H1             11.7416228566       -1.2424712121       -7.0029014987  W2        1168            0.0000000000
      3504      1168  TIP3      H2             11.3590128566       -2.6700212121       -6.6748914987  W2        1168            0.0000000000
      3505      1169  TIP3      OH2            25.1567828566        3.5678787879      -10.1093314987  W2        1169            0.0000000000
      3506      1169  TIP3      H1             25.2301328566        4.5068987879       -9.9388014987  W2        1169            0.0000000000
      3507      1169  TIP3      H2             26.0622928566        3.2627387879      -10.1656014987  W2        1169            0.0000000000
      3508      1170  TIP3      OH2             8.1265028566        0.3522787879        2.3029485013  W2        1170            0.0000000000
      3509      1170  TIP3      H1              7.6253428566        0.3242187879        1.4879185013  W2        1170            0.0000000000
      3510      1170  TIP3      H2              8.1318728566       -0.5534012121        2.6126785013  W2        1170            0.0000000000
      3511      1171  TIP3      OH2             7.8767728566        3.1326587879       -0.8130314987  W2        1171            0.0000000000
      3512      1171  TIP3      H1              8.8228328566        2.9883587879       -0.8320814987  W2        1171            0.0000000000
      3513      1171  TIP3      H2              7.7644028566        3.9169387879       -0.2759114987  W2        1171            0.0000000000
      3514      1172  TIP3      OH2            26.0746228566        3.7986287879        4.8693385013  W2        1172            0.0000000000
      3515      1172  TIP3      H1             26.0253028566        2.8434387879        4.8320985013  W2        1172            0.0000000000
      3516      1172  TIP3      H2             25.2478528566        4.0661587879        5.2707185013  W2        1172            0.0000000000
      3517      1173  TIP3      OH2            17.0530228566        3.3725487879        3.7454785013  W2        1173            0.0000000000
      3518      1173  TIP3      H1             17.1404828566        4.1990087879        4.2203885013  W2        1173            0.0000000000
      3519      1173  TIP3      H2             16.1895328566        3.0429287879        3.9944085013  W2        1173            0.0000000000
      3520      1174  TIP3      OH2            17.4676028566        7.1449187879       -6.4484614987  W2        1174            0.0000000000
      3521      1174  TIP3      H1             17.3922028566        7.0236387879       -7.3949414987  W2        1174            0.0000000000
      3522      1174  TIP3      H2             17.5004728566        8.0941887879       -6.3300014987  W2        1174            0.0000000000
      3523      1175  TIP3      OH2            11.1209828566        5.9336187879       -4.6675614987  W2        1175            0.0000000000
      3524      1175  TIP3      H1             11.2730228566        5.5856587879       -3.7889114987  W2        1175            0.0000000000
      3525      1175  TIP3      H2             10.2700228566        5.5773487879       -4.9228414987  W2        1175            0.0000000000
      3526      1176  TIP3      OH2            20.5692028566        6.2989387879       -9.4462214987  W2        1176            0.0000000000
      3527      1176  TIP3      H1             20.9440428566        5.5545487879       -9.9169614987  W2        1176            0.0000000000
      3528      1176  TIP3      H2             20.5735728566        6.0289987879       -8.5278914987  W2        1176            0.0000000000
      3529      1177  TIP3      OH2            20.2380128566        6.2246487879       -6.6970014987  W2        1177            0.0000000000
      3530      1177  TIP3      H1             19.3029928566        6.3248387879       -6.5183014987  W2        1177            0.0000000000
      3531      1177  TIP3      H2             20.5182028566        5.5152487879       -6.1186814987  W2        1177            0.0000000000
      3532      1178  TIP3      OH2            23.2266028566       -4.7081212121        5.3495585013  W2        1178            0.0000000000
      3533      1178  TIP3      H1             22.8192828566       -4.2275612121        4.6288885013  W2        1178            0.0000000000
      3534      1178  TIP3      H2             23.2671728566       -5.6135212121        5.0416385013  W2        1178            0.0000000000
      3535      1179  TIP3      OH2            10.3755528566        1.6758187879        3.3462285013  W2        1179            0.0000000000
      3536      1179  TIP3      H1             10.5916828566        1.3143787879        4.2058085013  W2        1179            0.0000000000
      3537      1179  TIP3      H2              9.5200228566        1.3011987879        3.1365785013  W2        1179            0.0000000000
      3538      1180  TIP3      OH2            12.9943528566       -9.8541312121       -0.6583514987  W2        1180            0.0000000000
      3539      1180  TIP3      H1             12.1327228566       -9.9413112121       -1.0660614987  W2        1180            0.0000000000
      3540      1180  TIP3      H2             12.9719228566       -8.9981212121       -0.2305914987  W2        1180            0.0000000000
      3541      1181  TIP3      OH2            17.6571328566      -10.1320912121        2.7163485013  W2        1181            0.0000000000
      3542      1181  TIP3      H1             18.0774428566      -10.5473812121        3.4694085013  W2        1181            0.0000000000
      3543      1181  TIP3      H2             16.7240928566      -10.3107612121        2.8335485013  W2        1181            0.0000000000
      3544      1182  TIP3      OH2            20.9836228566       -6.3765712121        3.5697985013  W2        1182            0.0000000000
      3545      1182  TIP3      H1             20.4695728566       -6.5023512121        4.3673985013  W2        1182            0.0000000000
      3546      1182  TIP3      H2             20.8280928566       -5.4642612121        3.3254185013  W2        1182            0.0000000000
      3547      1183  TIP3      OH2            21.7461128566       -1.5155712121      -10.6689014987  W2        1183            0.0000000000
      3548      1183  TIP3      H1             21.7881928566       -1.7381812121      -11.5989014987  W2        1183            0.0000000000
      3549      1183  TIP3      H2             22.5953228566       -1.1168612121      -10.4789114987  W2        1183            0.0000000000
      3550      1184  TIP3      OH2            17.3188628566       -7.6397512121       -9.9985714987  W2        1184            0.0000000000
      3551      1184  TIP3      H1             17.0653428566       -7.6205912121       -9.0757614987  W2        1184            0.0000000000
      3552      1184  TIP3      H2             17.0620728566       -8.5112112121      -10.2999514987  W2        1184            0.0000000000
      3553      1185  TIP3      OH2            13.0853628566       -4.8886812121        0.4366685013  W2        1185            0.0000000000
      3554      1185  TIP3      H1             12.4435728566       -4.9289512121        1.1456785013  W2        1185            0.0000000000
      3555      1185  TIP3      H2             13.1225628566       -3.9622112121        0.1989685013  W2        1185            0.0000000000
      3556      1186  TIP3      OH2            13.0822728566       -4.6676712121       -4.6513314987  W2        1186            0.0000000000
      3557      1186  TIP3      H1             12.1895628566       -5.0080612121       -4.7099514987  W2        1186            0.0000000000
      3558      1186  TIP3      H2             13.5329328566       -5.0445812121       -5.4070114987  W2        1186            0.0000000000
      3559      1187  TIP3      OH2            18.6178228566       -4.2516412121       -5.8342514987  W2        1187            0.0000000000
      3560      1187  TIP3      H1             18.2088528566       -3.4367812121       -6.1257714987  W2        1187            0.0000000000
      3561      1187  TIP3      H2             19.3384428566       -4.3916312121       -6.4485414987  W2        1187            0.0000000000
      3562      1188  TIP3      OH2            17.7199828566       -4.0760012121        5.6538185013  W2        1188            0.0000000000
      3563      1188  TIP3      H1             17.1573628566       -4.7808412121        5.9745985013  W2        1188            0.0000000000
      3564      1188  TIP3      H2             18.5463228566       -4.1968112121        6.1215785013  W2        1188            0.0000000000
      3565      1189  TIP3      OH2            19.6225928566       -4.8056012121       -3.0202814987  W2        1189            0.0000000000
      3566      1189  TIP3      H1             19.4270428566       -4.1999212121       -3.7352214987  W2        1189            0.0000000000
      3567      1189  TIP3      H2             19.8038528566       -5.6390812121       -3.4546514987  W2        1189            0.0000000000
      3568      1190  TIP3      OH2            10.8354128566       -4.5683312121        2.3038685013  W2        1190            0.0000000000
      3569      1190  TIP3      H1             10.7973528566       -4.1681712121        3.1725785013  W2        1190            0.0000000000
      3570      1190  TIP3      H2             10.3445228566       -5.3850912121        2.3941585013  W2        1190            0.0000000000
      3571      1191  TIP3      OH2            14.2011528566       -7.1941012121      -10.8975314987  W2        1191            0.0000000000
      3572      1191  TIP3      H1             13.7702228566       -7.6390912121      -10.1677914987  W2        1191            0.0000000000
      3573      1191  TIP3      H2             13.4830228566       -6.8224712121      -11.4097814987  W2        1191            0.0000000000
      3574      1192  TIP3      OH2             7.4434928566       -7.4521512121       -3.8456614987  W2        1192            0.0000000000
      3575      1192  TIP3      H1              8.0742628566       -7.4809412121       -3.1262714987  W2        1192            0.0000000000
      3576      1192  TIP3      H2              7.8929228566       -7.8772812121       -4.5760714987  W2        1192            0.0000000000
      3577      1193  TIP3      OH2             8.7177028566       -6.7059512121       -8.4216214987  W2        1193            0.0000000000
      3578      1193  TIP3      H1              9.1918728566       -6.1149612121       -9.0065314987  W2        1193            0.0000000000
      3579      1193  TIP3      H2              8.0003428566       -6.1756612121       -8.0746114987  W2        1193            0.0000000000
      3580      1194  TIP3      OH2            18.8865128566       -3.1674712121        1.6509585013  W2        1194            0.0000000000
      3581      1194  TIP3      H1             19.2099928566       -3.7985012121        1.0080085013  W2        1194            0.0000000000
      3582      1194  TIP3      H2             18.4464428566       -3.7022512121        2.3116985013  W2        1194            0.0000000000
      3583      1195  TIP3      OH2            15.6638028566       -7.2399212121       -3.5649214987  W2        1195            0.0000000000
      3584      1195  TIP3      H1             14.7529128566       -7.1832412121       -3.2763214987  W2        1195            0.0000000000
      3585      1195  TIP3      H2             16.1690928566       -7.3003712121       -2.7542014987  W2        1195            0.0000000000
      3586      1196  TIP3      OH2            10.4921428566       -5.6112912121       -4.7381614987  W2        1196            0.0000000000
      3587      1196  TIP3      H1              9.6029428566       -5.5117412121       -5.0782014987  W2        1196            0.0000000000
      3588      1196  TIP3      H2             10.7886328566       -6.4529912121       -5.0843714987  W2        1196            0.0000000000
      3589      1197  TIP3      OH2            14.1453228566       -5.6110312121       -7.0817014987  W2        1197            0.0000000000
      3590      1197  TIP3      H1             15.0768728566       -5.4820312121       -6.9033914987  W2        1197            0.0000000000
      3591      1197  TIP3      H2             13.9303528566       -4.9416012121       -7.7312314987  W2        1197            0.0000000000
      3592      1198  TIP3      OH2            20.0689928566       -8.0052912121       -0.3007414987  W2        1198            0.0000000000
      3593      1198  TIP3      H1             19.3921528566       -7.8739812121        0.3632285013  W2        1198            0.0000000000
      3594      1198  TIP3      H2             19.5834828566       -8.1603412121       -1.1109714987  W2        1198            0.0000000000
      3595      1199  TIP3      OH2            12.8193428566       -4.4168112121       -9.5150914987  W2        1199            0.0000000000
      3596      1199  TIP3      H1             12.2768528566       -4.7964312121      -10.2063314987  W2        1199            0.0000000000
      3597      1199  TIP3      H2             13.6528328566       -4.2223412121       -9.9436814987  W2        1199            0.0000000000
      3598      1200  TIP3      OH2            23.3565028566        7.6662487879        5.9760185013  W2        1200            0.0000000000
      3599      1200  TIP3      H1             23.5563728566        8.0904387879        5.1415485013  W2        1200            0.0000000000
      3600      1200  TIP3      H2             24.0118728566        8.0100687879        6.5830585013  W2        1200            0.0000000000
      3601      1201  TIP3      OH2            10.9544828566        0.1403787879        5.5840685013  W2        1201            0.0000000000
      3602      1201  TIP3      H1             11.6867228566        0.3949687879        6.1455185013  W2        1201            0.0000000000
      3603      1201  TIP3      H2             10.1743528566        0.3449187879        6.0996085013  W2        1201            0.0000000000
      3604      1202  TIP3      OH2            16.9837728566       -4.4526212121       -1.6779614987  W2        1202            0.0000000000
      3605      1202  TIP3      H1             17.5481128566       -4.9989612121       -2.2250014987  W2        1202            0.0000000000
      3606      1202  TIP3      H2             16.8361128566       -4.9744312121       -0.8892014987  W2        1202            0.0000000000
      3607      1203  TIP3      OH2            11.9857428566       -8.3160112121       -5.2594814987  W2        1203            0.0000000000
      3608      1203  TIP3      H1             11.6686928566       -9.2184812121       -5.2949414987  W2        1203            0.0000000000
      3609      1203  TIP3      H2             12.7671528566       -8.3142712121       -5.8123214987  W2        1203            0.0000000000
      3610      1204  TIP3      OH2            15.6103628566       -6.0640112121        0.7360785013  W2        1204            0.0000000000
      3611      1204  TIP3      H1             14.7748928566       -5.6100612121        0.8463185013  W2        1204            0.0000000000
      3612      1204  TIP3      H2             16.1344228566       -5.7881612121        1.4880685013  W2        1204            0.0000000000
      3613      1205  TIP3      OH2            16.1546228566        0.1487587879       -7.5792814987  W2        1205            0.0000000000
      3614      1205  TIP3      H1             15.4097228566       -0.3587112121       -7.9014914987  W2        1205            0.0000000000
      3615      1205  TIP3      H2             16.0203428566        0.1975587879       -6.6328014987  W2        1205            0.0000000000
      3616      1206  TIP3      OH2            23.3045128566       -0.7184212121        1.2074785013  W2        1206            0.0000000000
      3617      1206  TIP3      H1             23.9463928566       -0.2617912121        0.6636985013  W2        1206            0.0000000000
      3618      1206  TIP3      H2             22.4742028566       -0.6051812121        0.7448885013  W2        1206            0.0000000000
      3619      1207  TIP3      OH2            20.0523028566       -7.0372512121       -9.3800214987  W2        1207            0.0000000000
      3620      1207  TIP3      H1             19.1137228566       -6.9256912121       -9.5311414987  W2        1207            0.0000000000
      3621      1207  TIP3      H2             20.3495128566       -6.1805612121       -9.0734514987  W2        1207            0.0000000000
      3622      1208  TIP3      OH2            17.6738328566        0.3330887879        3.6576285013  W2        1208            0.0000000000
      3623      1208  TIP3      H1             17.3284428566       -0.0486712121        4.4645885013  W2        1208            0.0000000000
      3624      1208  TIP3      H2             17.4738428566        1.2664487879        3.7289185013  W2        1208            0.0000000000
      3625      1209  TIP3      OH2            20.7706528566       -5.1699812121       -7.7192814987  W2        1209            0.0000000000
      3626      1209  TIP3      H1             21.6625528566       -5.3074812121       -7.4001614987  W2        1209            0.0000000000
      3627      1209  TIP3      H2             20.8270128566       -4.3793712121       -8.2559314987  W2        1209            0.0000000000
      3628      1210  TIP3      OH2            11.2794528566       -0.5562412121       -1.8094914987  W2        1210            0.0000000000
      3629      1210  TIP3      H1             12.0241728566       -0.5586712121       -2.4108414987  W2        1210            0.0000000000
      3630      1210  TIP3      H2             11.3571128566       -1.3798612121       -1.3279814987  W2        1210            0.0000000000
      3631      1211  TIP3      OH2            18.2800328566        1.6071887879       -8.5538214987  W2        1211            0.0000000000
      3632      1211  TIP3      H1             17.9848728566        2.4339787879       -8.1723414987  W2        1211            0.0000000000
      3633      1211  TIP3      H2             17.5770328566        0.9878787879       -8.3576814987  W2        1211            0.0000000000
      3634      1212  TIP3      OH2             8.2874228566       -2.0955512121        3.5053585013  W2        1212            0.0000000000
      3635      1212  TIP3      H1              8.5102828566       -2.5135912121        4.3371085013  W2        1212            0.0000000000
      3636      1212  TIP3      H2              7.6854328566       -2.7080512121        3.0826385013  W2        1212            0.0000000000
      3637      1213  TIP3      OH2            15.3039128566       -2.5785612121        5.7183285013  W2        1213            0.0000000000
      3638      1213  TIP3      H1             15.0079928566       -2.7442612121        4.8232385013  W2        1213            0.0000000000
      3639      1213  TIP3      H2             16.2354328566       -2.7985312121        5.7077185013  W2        1213            0.0000000000
      3640      1214  TIP3      OH2            19.9241928566        2.7946387879        3.6081285013  W2        1214            0.0000000000
      3641      1214  TIP3      H1             19.0236228566        2.9778987879        3.3405185013  W2        1214            0.0000000000
      3642      1214  TIP3      H2             19.9583028566        3.0535687879        4.5290085013  W2        1214            0.0000000000
      3643      1215  TIP3      OH2            25.6555228566       -4.9605712121       -8.0246114987  W2        1215            0.0000000000
      3644      1215  TIP3      H1             25.1011528566       -5.3567712121       -8.6968614987  W2        1215            0.0000000000
      3645      1215  TIP3      H2             25.7558828566       -4.0500512121       -8.3022814987  W2        1215            0.0000000000
      3646      1216  TIP3      OH2            25.6187228566        0.8395987879        4.8125385013  W2        1216            0.0000000000
      3647      1216  TIP3      H1             24.7675728566        1.0779787879        4.4451785013  W2        1216            0.0000000000
      3648      1216  TIP3      H2             26.2090628566        0.8229187879        4.0592485013  W2        1216            0.0000000000
      3649      1217  TIP3      OH2            23.9506928566        3.8254687879       -7.5594014987  W2        1217            0.0000000000
      3650      1217  TIP3      H1             23.5778028566        2.9998487879       -7.2503414987  W2        1217            0.0000000000
      3651      1217  TIP3      H2             24.2280428566        3.6424087879       -8.4570614987  W2        1217            0.0000000000
      3652      1218  TIP3      OH2            21.1110828566       -1.3665812121       -0.5382114987  W2        1218            0.0000000000
      3653      1218  TIP3      H1             20.1827728566       -1.5983912121       -0.5652814987  W2        1218            0.0000000000
      3654      1218  TIP3      H2             21.5621928566       -2.1436012121       -0.8683314987  W2        1218            0.0000000000
      3655      1219  TIP3      OH2            13.6543928566        2.9615787879       -4.4053414987  W2        1219            0.0000000000
      3656      1219  TIP3      H1             14.1816128566        3.7350187879       -4.6054614987  W2        1219            0.0000000000
      3657      1219  TIP3      H2             12.7742428566        3.1864987879       -4.7069414987  W2        1219            0.0000000000
      3658      1220  TIP3      OH2             9.4091628566       -2.1760112121       -9.8181014987  W2        1220            0.0000000000
      3659      1220  TIP3      H1             10.0251528566       -1.5492912121       -9.4386214987  W2        1220            0.0000000000
      3660      1220  TIP3      H2              8.5474228566       -1.8600312121       -9.5464514987  W2        1220            0.0000000000
      3661      1221  TIP3      OH2            15.0816228566        0.6245687879       -4.8289114987  W2        1221            0.0000000000
      3662      1221  TIP3      H1             14.8406228566        1.5500087879       -4.7873814987  W2        1221            0.0000000000
      3663      1221  TIP3      H2             14.3409828566        0.1656987879       -4.4325214987  W2        1221            0.0000000000
      3664      1222  TIP3      OH2            15.5962828566        4.7739287879        1.4861985013  W2        1222            0.0000000000
      3665      1222  TIP3      H1             15.9587528566        5.6284887879        1.2526385013  W2        1222            0.0000000000
      3666      1222  TIP3      H2             16.1278028566        4.4820887879        2.2268285013  W2        1222            0.0000000000
      3667      1223  TIP3      OH2            13.7647028566        5.6463287879       -5.2836914987  W2        1223            0.0000000000
      3668      1223  TIP3      H1             12.8147528566        5.7520687879       -5.2323614987  W2        1223            0.0000000000
      3669      1223  TIP3      H2             14.1165128566        6.4670687879       -4.9389414987  W2        1223            0.0000000000
      3670      1224  TIP3      OH2            19.1403628566        0.8729987879        1.1867585013  W2        1224            0.0000000000
      3671      1224  TIP3      H1             18.7144928566        0.6451687879        2.0131585013  W2        1224            0.0000000000
      3672      1224  TIP3      H2             19.7209428566        0.1341787879        1.0042885013  W2        1224            0.0000000000
      3673      1225  TIP3      OH2            21.3432528566        1.8020487879       -9.7393414987  W2        1225            0.0000000000
      3674      1225  TIP3      H1             21.6965628566        1.4220287879       -8.9349914987  W2        1225            0.0000000000
      3675      1225  TIP3      H2             20.3946028566        1.7085287879       -9.6524114987  W2        1225            0.0000000000
      3676      1226  TIP3      OH2            21.7987828566        5.4249487879        3.6562385013  W2        1226            0.0000000000
      3677      1226  TIP3      H1             21.1971028566        4.8692387879        3.1608685013  W2        1226            0.0000000000
      3678      1226  TIP3      H2             22.0801528566        6.0919287879        3.0299785013  W2        1226            0.0000000000
      3679      1227  TIP3      OH2            25.8466928566        6.2812987879       -9.5383214987  W2        1227            0.0000000000
      3680      1227  TIP3      H1             26.5904828566        6.8673487879       -9.6781614987  W2        1227            0.0000000000
      3681      1227  TIP3      H2             25.1525028566        6.8498787879       -9.2050814987  W2        1227            0.0000000000
      3682      1228  TIP3      OH2             9.9213728566       -7.3422812121        3.0634985013  W2        1228            0.0000000000
      3683      1228  TIP3      H1              9.0286028566       -7.0037412121        2.9958985013  W2        1228            0.0000000000
      3684      1228  TIP3      H2              9.8226528566       -8.1976712121        3.4815785013  W2        1228            0.0000000000
      3685      1229  TIP3      OH2            22.2091828566        0.4742487879       -7.5125514987  W2        1229            0.0000000000
      3686      1229  TIP3      H1             21.9319428566       -0.2538212121       -6.9564414987  W2        1229            0.0000000000
      3687      1229  TIP3      H2             23.1364828566        0.5934487879       -7.3072914987  W2        1229            0.0000000000
      3688      1230  TIP3      OH2             9.5725728566        4.4621587879        1.4984385013  W2        1230            0.0000000000
      3689      1230  TIP3      H1              9.7896028566        3.5303987879        1.4674085013  W2        1230            0.0000000000
      3690      1230  TIP3      H2              9.8189228566        4.7366587879        2.3817185013  W2        1230            0.0000000000
      3691      1231  TIP3      OH2            15.4340328566        2.9136587879      -11.2923414987  W2        1231            0.0000000000
      3692      1231  TIP3      H1             15.6730128566        2.1654687879      -11.8394514987  W2        1231            0.0000000000
      3693      1231  TIP3      H2             15.1651628566        2.5258287879      -10.4595614987  W2        1231            0.0000000000
      3694      1232  TIP3      OH2            14.3710928566        2.4840387879       -8.8360814987  W2        1232            0.0000000000
      3695      1232  TIP3      H1             14.5178928566        1.9640187879       -8.0459914987  W2        1232            0.0000000000
      3696      1232  TIP3      H2             14.3682628566        3.3907987879       -8.5294914987  W2        1232            0.0000000000
      3697      1233  TIP3      OH2            10.8242028566       -0.2636312121       -8.3255414987  W2        1233            0.0000000000
      3698      1233  TIP3      H1             10.1381328566        0.0886187879       -7.7585714987  W2        1233            0.0000000000
      3699      1233  TIP3      H2             11.3469928566        0.4993287879       -8.5721114987  W2        1233            0.0000000000
      3700      1234  TIP3      OH2            18.6557128566       -7.6012512121        1.9533585013  W2        1234            0.0000000000
      3701      1234  TIP3      H1             19.3545028566       -7.5273812121        2.6033285013  W2        1234            0.0000000000
      3702      1234  TIP3      H2             18.2748528566       -8.4657512121        2.1076485013  W2        1234            0.0000000000
      3703      1235  TIP3      OH2            19.4402028566       -7.9490812121       -6.9494114987  W2        1235            0.0000000000
      3704      1235  TIP3      H1             19.6600328566       -7.4775412121       -7.7528714987  W2        1235            0.0000000000
      3705      1235  TIP3      H2             19.9986028566       -7.5548212121       -6.2793514987  W2        1235            0.0000000000
      3706      1236  TIP3      OH2            17.1088128566        4.1813987879       -8.0866614987  W2        1236            0.0000000000
      3707      1236  TIP3      H1             16.2924228566        4.6783687879       -8.0342314987  W2        1236            0.0000000000
      3708      1236  TIP3      H2             17.6384428566        4.6567487879       -8.7267814987  W2        1236            0.0000000000
      3709      1237  TIP3      OH2            16.6401928566       -6.2212012121       -6.1145714987  W2        1237            0.0000000000
      3710      1237  TIP3      H1             17.4524528566       -5.7168812121       -6.0684014987  W2        1237            0.0000000000
      3711      1237  TIP3      H2             16.3954928566       -6.3662312121       -5.2006114987  W2        1237            0.0000000000
      3712      1238  TIP3      OH2            17.1758328566       -5.2349312121        3.0700885013  W2        1238            0.0000000000
      3713      1238  TIP3      H1             17.2948628566       -4.6613912121        3.8271285013  W2        1238            0.0000000000
      3714      1238  TIP3      H2             17.8312928566       -5.9229912121        3.1848685013  W2        1238            0.0000000000
      3715      1239  TIP3      OH2            17.5238628566       -9.1399012121       -5.1764614987  W2        1239            0.0000000000
      3716      1239  TIP3      H1             17.1772128566       -8.5228412121       -4.5320314987  W2        1239            0.0000000000
      3717      1239  TIP3      H2             18.1825528566       -8.6393312121       -5.6579114987  W2        1239            0.0000000000
      3718      1240  TIP3      OH2            14.4471228566        5.2251187879       -8.1049714987  W2        1240            0.0000000000
      3719      1240  TIP3      H1             14.6079928566        6.0248687879       -8.6057114987  W2        1240            0.0000000000
      3720      1240  TIP3      H2             14.2499028566        5.5317187879       -7.2199114987  W2        1240            0.0000000000
      3721      1241  TIP3      OH2            13.1815628566       -8.0769612121       -8.4892114987  W2        1241            0.0000000000
      3722      1241  TIP3      H1             13.0980428566       -7.1886512121       -8.1425714987  W2        1241            0.0000000000
      3723      1241  TIP3      H2             14.0715928566       -8.3422912121       -8.2575314987  W2        1241            0.0000000000
      3724      1242  TIP3      OH2            23.3804128566       -7.3279012121        3.9050585013  W2        1242            0.0000000000
      3725      1242  TIP3      H1             22.4639928566       -7.0657312121        3.8174285013  W2        1242            0.0000000000
      3726      1242  TIP3      H2             23.7159128566       -7.3310012121        3.0085885013  W2        1242            0.0000000000
      3727      1243  TIP3      OH2            21.9825128566       -3.5778012121       -1.9992114987  W2        1243            0.0000000000
      3728      1243  TIP3      H1             21.1849528566       -3.9927812121       -2.3277114987  W2        1243            0.0000000000
      3729      1243  TIP3      H2             22.4276228566       -4.2684312121       -1.5081614987  W2        1243            0.0000000000
      3730      1244  TIP3      OH2            11.4400928566        2.3502587879       -9.4287614987  W2        1244            0.0000000000
      3731      1244  TIP3      H1             12.0322428566        3.0497387879       -9.1525214987  W2        1244            0.0000000000
      3732      1244  TIP3      H2             11.8993928566        1.9172087879      -10.1483014987  W2        1244            0.0000000000
      3733      1245  TIP3      OH2             9.7560128566       -4.9854412121      -10.3128214987  W2        1245            0.0000000000
      3734      1245  TIP3      H1              9.7112728566       -4.0461312121      -10.1341214987  W2        1245            0.0000000000
      3735      1245  TIP3      H2              8.8683328566       -5.2209512121      -10.5826114987  W2        1245            0.0000000000
      3736      1246  TIP3      OH2            23.0689728566        5.6784487879       -0.3768614987  W2        1246            0.0000000000
      3737      1246  TIP3      H1             22.9134028566        6.3568887879       -1.0339314987  W2        1246            0.0000000000
      3738      1246  TIP3      H2             24.0016128566        5.7503787879       -0.1738014987  W2        1246            0.0000000000
      3739      1247  TIP3      OH2            10.5642128566      -10.2037812121       -1.6397214987  W2        1247            0.0000000000
      3740      1247  TIP3      H1             10.3351928566      -10.1445312121       -2.5672214987  W2        1247            0.0000000000
      3741      1247  TIP3      H2             10.1215528566      -10.9952312121       -1.3333114987  W2        1247            0.0000000000
      3742      1248  TIP3      OH2             9.4945428566        3.7369287879       -5.4791414987  W2        1248            0.0000000000
      3743      1248  TIP3      H1              8.6624028566        4.2091987879       -5.4520014987  W2        1248            0.0000000000
      3744      1248  TIP3      H2             10.0403728566        4.2466887879       -6.0778314987  W2        1248            0.0000000000
      3745      1249  TIP3      OH2             8.7829128566        6.3492987879        5.8506585013  W2        1249            0.0000000000
      3746      1249  TIP3      H1              9.3231328566        6.1326987879        6.6105785013  W2        1249            0.0000000000
      3747      1249  TIP3      H2              8.3017128566        5.5438987879        5.6609085013  W2        1249            0.0000000000
      3748      1250  TIP3      OH2            13.3802528566        5.2687387879        7.4710785013  W2        1250            0.0000000000
      3749      1250  TIP3      H1             14.1479728566        4.8098187879        7.8119985013  W2        1250            0.0000000000
      3750      1250  TIP3      H2             13.3588728566        5.0427187879        6.5411985013  W2        1250            0.0000000000
      3751      1251  TIP3      OH2            17.4722128566        4.7767987879      -11.1537414987  W2        1251            0.0000000000
      3752      1251  TIP3      H1             16.8283128566        4.1456587879      -10.8323714987  W2        1251            0.0000000000
      3753      1251  TIP3      H2             18.2340428566        4.2455987879      -11.3853914987  W2        1251            0.0000000000
      3754      1252  TIP3      OH2            19.9571228566        3.6488487879        6.2002285013  W2        1252            0.0000000000
      3755      1252  TIP3      H1             19.6060728566        2.7921487879        6.4432685013  W2        1252            0.0000000000
      3756      1252  TIP3      H2             20.6834428566        3.7915187879        6.8071285013  W2        1252            0.0000000000
      3757      1253  TIP3      OH2            22.0765028566        4.5937887879      -10.9199414987  W2        1253            0.0000000000
      3758      1253  TIP3      H1             22.3595428566        3.7993087879      -10.4672514987  W2        1253            0.0000000000
      3759      1253  TIP3      H2             22.8162928566        4.8268887879      -11.4808314987  W2        1253            0.0000000000
      3760      1254  TIP3      OH2             8.6898628566        0.1597087879        6.8050885013  W2        1254            0.0000000000
      3761      1254  TIP3      H1              8.8339128566       -0.7422212121        6.5187585013  W2        1254            0.0000000000
      3762      1254  TIP3      H2              7.9176028566        0.4459187879        6.3173185013  W2        1254            0.0000000000
      3763      1255  TIP3      OH2            13.0312328566        0.5032787879      -11.0624514987  W2        1255            0.0000000000
      3764      1255  TIP3      H1             13.0956428566       -0.2907612121      -10.5318114987  W2        1255            0.0000000000
      3765      1255  TIP3      H2             13.6841528566        0.3845587879      -11.7522514987  W2        1255            0.0000000000
      3766      1256  TIP3      OH2            15.3454728566        0.1295187879        6.2377285013  W2        1256            0.0000000000
      3767      1256  TIP3      H1             15.0168528566        0.4003287879        5.3804685013  W2        1256            0.0000000000
      3768      1256  TIP3      H2             15.4972928566       -0.8115012121        6.1502285013  W2        1256            0.0000000000
      3769      1257  TIP3      OH2            18.3835728566        1.5504487879      -11.3266514987  W2        1257            0.0000000000
      3770      1257  TIP3      H1             18.1149828566        1.7306587879      -10.4257614987  W2        1257            0.0000000000
      3771      1257  TIP3      H2             18.1771328566        0.6250687879      -11.4580714987  W2        1257            0.0000000000
      3772      1258  TIP3      OH2            21.0799928566        0.0452487879        3.6209585013  W2        1258            0.0000000000
      3773      1258  TIP3      H1             21.8254728566        0.6336187879        3.5013585013  W2        1258            0.0000000000
      3774      1258  TIP3      H2             20.3226728566        0.6272187879        3.6842685013  W2        1258            0.0000000000
      3775      1259  TIP3      OH2             9.5225128566       -2.6399612121        6.2250185013  W2        1259            0.0000000000
      3776      1259  TIP3      H1              9.9306328566       -3.4973012121        6.1040785013  W2        1259            0.0000000000
      3777      1259  TIP3      H2              9.2622728566       -2.6258312121        7.1460485013  W2        1259            0.0000000000
      3778      1260  TIP3      OH2            14.1806128566       -1.5241012121       -8.7566514987  W2        1260            0.0000000000
      3779      1260  TIP3      H1             13.7208128566       -2.0082712121       -8.0708014987  W2        1260            0.0000000000
      3780      1260  TIP3      H2             14.4354828566       -2.1925612121       -9.3926014987  W2        1260            0.0000000000
      3781      1261  TIP3      OH2            13.4695428566       -3.6313912121        3.5993085013  W2        1261            0.0000000000
      3782      1261  TIP3      H1             12.8511528566       -2.9567312121        3.8797785013  W2        1261            0.0000000000
      3783      1261  TIP3      H2             13.8136628566       -3.3100012121        2.7659285013  W2        1261            0.0000000000
      3784      1262  TIP3      OH2            15.2516528566       -3.2809212121      -10.4943314987  W2        1262            0.0000000000
      3785      1262  TIP3      H1             15.0711528566       -3.4358012121      -11.4215014987  W2        1262            0.0000000000
      3786      1262  TIP3      H2             16.2017028566       -3.1730512121      -10.4495414987  W2        1262            0.0000000000
      3787      1263  TIP3      OH2            18.4893628566       -1.1598612121        6.8767885013  W2        1263            0.0000000000
      3788      1263  TIP3      H1             19.4424828566       -1.0759512121        6.8493885013  W2        1263            0.0000000000
      3789      1263  TIP3      H2             18.3288228566       -1.8716812121        7.4962785013  W2        1263            0.0000000000
      3790      1264  TIP3      OH2            24.6414828566       -0.9265012121      -11.0485214987  W2        1264            0.0000000000
      3791      1264  TIP3      H1             24.3679628566       -1.3509512121      -11.8616914987  W2        1264            0.0000000000
      3792      1264  TIP3      H2             24.6808928566        0.0049487879      -11.2654814987  W2        1264            0.0000000000
      3793      1265  TIP3      OH2            13.8089128566       -6.2763112121        4.6816185013  W2        1265            0.0000000000
      3794      1265  TIP3      H1             13.9590028566       -7.0051812121        4.0795885013  W2        1265            0.0000000000
      3795      1265  TIP3      H2             13.8111528566       -5.4991412121        4.1228385013  W2        1265            0.0000000000
      3796      1266  TIP3      OH2            14.2214828566       -7.9067312121        2.1743585013  W2        1266            0.0000000000
      3797      1266  TIP3      H1             14.7572328566       -7.4550612121        1.5222885013  W2        1266            0.0000000000
      3798      1266  TIP3      H2             13.3694428566       -8.0147512121        1.7517685013  W2        1266            0.0000000000
      3799      1267  TIP3      OH2            15.8033228566       -2.4671112121        2.4138785013  W2        1267            0.0000000000
      3800      1267  TIP3      H1             16.5538028566       -2.6233612121        1.8406585013  W2        1267            0.0000000000
      3801      1267  TIP3      H2             15.4641528566       -1.6154512121        2.1384285013  W2        1267            0.0000000000
      3802      1268  TIP3      OH2            20.2189428566       -4.6519312121        7.4424085013  W2        1268            0.0000000000
      3803      1268  TIP3      H1             20.4110728566       -5.5829912121        7.3308585013  W2        1268            0.0000000000
      3804      1268  TIP3      H2             21.0765728566       -4.2269812121        7.4319485013  W2        1268            0.0000000000
      3805      1269  TIP3      OH2            21.5356628566       -1.8634112121        5.5196785013  W2        1269            0.0000000000
      3806      1269  TIP3      H1             21.2541628566       -1.1539512121        4.9420585013  W2        1269            0.0000000000
      3807      1269  TIP3      H2             22.4780928566       -1.9361112121        5.3687985013  W2        1269            0.0000000000
      3808      1270  TIP3      OH2            12.2875428566       -5.0779612121        6.5931785013  W2        1270            0.0000000000
      3809      1270  TIP3      H1             11.5204428566       -5.6104812121        6.3829385013  W2        1270            0.0000000000
      3810      1270  TIP3      H2             12.9664428566       -5.3879212121        5.9938085013  W2        1270            0.0000000000
      3811      1271  TIP3      OH2            15.0270328566      -10.4501612121        2.6057185013  W2        1271            0.0000000000
      3812      1271  TIP3      H1             14.9289928566       -9.5038412121        2.5003385013  W2        1271            0.0000000000
      3813      1271  TIP3      H2             14.2846528566      -10.8227812121        2.1300685013  W2        1271            0.0000000000
      3814      1272  TIP3      OH2            16.2910828566       -6.1286212121        6.1695585013  W2        1272            0.0000000000
      3815      1272  TIP3      H1             16.0556228566       -6.3479512121        7.0710485013  W2        1272            0.0000000000
      3816      1272  TIP3      H2             15.5077728566       -6.3355012121        5.6598085013  W2        1272            0.0000000000
      3817      1273  TIP3      OH2            19.0067428566       -7.0012712121        5.2449085013  W2        1273            0.0000000000
      3818      1273  TIP3      H1             18.0592828566       -6.9693012121        5.3772385013  W2        1273            0.0000000000
      3819      1273  TIP3      H2             19.3194128566       -7.6265612121        5.8987285013  W2        1273            0.0000000000
      3820      1274  TIP3      OH2            20.6408928566       -8.3671612121        7.2500985013  W2        1274            0.0000000000
      3821      1274  TIP3      H1             20.5440728566       -9.3194312121        7.2442885013  W2        1274            0.0000000000
      3822      1274  TIP3      H2             20.3192028566       -8.0984812121        8.1106485013  W2        1274            0.0000000000
      3823      1275  TIP3      OH2            10.4678228566       -7.1575812121        6.2976485013  W2        1275            0.0000000000
      3824      1275  TIP3      H1             10.6795628566       -7.8639712121        5.6873985013  W2        1275            0.0000000000
      3825      1275  TIP3      H2             10.3565728566       -7.5949812121        7.1417685013  W2        1275            0.0000000000
      3826      1276  TIP3      OH2            15.2488428566      -11.1564212121        5.2769985013  W2        1276            0.0000000000
      3827      1276  TIP3      H1             15.9606828566      -11.7962012121        5.2629085013  W2        1276            0.0000000000
      3828      1276  TIP3      H2             15.1478828566      -10.8895912121        4.3633085013  W2        1276            0.0000000000
      3829      1277  TIP3      OH2            15.6025928566       -9.4735812121        7.3306285013  W2        1277            0.0000000000
      3830      1277  TIP3      H1             15.4708128566       -9.9492012121        6.5104785013  W2        1277            0.0000000000
      3831      1277  TIP3      H2             15.0033328566       -8.7292212121        7.2753385013  W2        1277            0.0000000000
      3832      1278  TIP3      OH2            15.1488228566        7.4094487879       -9.4929714987  W2        1278            0.0000000000
      3833      1278  TIP3      H1             16.0818928566        7.5673187879       -9.3491314987  W2        1278            0.0000000000
      3834      1278  TIP3      H2             14.8847028566        8.0847487879      -10.1178214987  W2        1278            0.0000000000
      3835      1279  TIP3      OH2             8.7173128566        2.0458287879      -10.0101614987  W2        1279            0.0000000000
      3836      1279  TIP3      H1              9.6312328566        2.1247187879       -9.7367714987  W2        1279            0.0000000000
      3837      1279  TIP3      H2              8.7246228566        1.3587887879      -10.6766014987  W2        1279            0.0000000000
      3838      1280  TIP3      OH2             7.3663728566        7.4386787879       -4.9327714987  W2        1280            0.0000000000
      3839      1280  TIP3      H1              6.7190828566        6.9768487879       -5.4656514987  W2        1280            0.0000000000
      3840      1280  TIP3      H2              7.7208328566        6.7670087879       -4.3501514987  W2        1280            0.0000000000
      3841      1281  TIP3      OH2             8.2362928566        5.5193787879       -3.1281514987  W2        1281            0.0000000000
      3842      1281  TIP3      H1              7.9019728566        4.6391087879       -2.9561314987  W2        1281            0.0000000000
      3843      1281  TIP3      H2              8.4585328566        5.8648787879       -2.2635914987  W2        1281            0.0000000000
      3844      1282  TIP3      OH2            25.7847728566        6.3290187879       -0.1476714987  W2        1282            0.0000000000
      3845      1282  TIP3      H1             25.7634428566        6.5138587879        0.7912685013  W2        1282            0.0000000000
      3846      1282  TIP3      H2             26.4753928566        6.8974187879       -0.4885314987  W2        1282            0.0000000000
      3847      1283  TIP3      OH2            25.3480628566        5.8961287879        2.7742385013  W2        1283            0.0000000000
      3848      1283  TIP3      H1             24.8609328566        5.1605387879        2.4029785013  W2        1283            0.0000000000
      3849      1283  TIP3      H2             25.8973328566        5.5025187879        3.4521785013  W2        1283            0.0000000000
      3850      1284  TIP3      OH2            23.7987928566        1.6859387879        7.4122685013  W2        1284            0.0000000000
      3851      1284  TIP3      H1             22.9329028566        1.5809087879        7.8064985013  W2        1284            0.0000000000
      3852      1284  TIP3      H2             24.1753828566        2.4442687879        7.8587385013  W2        1284            0.0000000000
      3853      1285  TIP3      OH2            25.0997628566       -0.0576912121       -7.0734814987  W2        1285            0.0000000000
      3854      1285  TIP3      H1             25.9499028566        0.3633987879       -6.9463214987  W2        1285            0.0000000000
      3855      1285  TIP3      H2             25.1052728566       -0.7976812121       -6.4663414987  W2        1285            0.0000000000
      3856      1286  TIP3      OH2            25.4943228566       -2.0039512121       -5.2499114987  W2        1286            0.0000000000
      3857      1286  TIP3      H1             24.7677828566       -2.4836912121       -4.8521514987  W2        1286            0.0000000000
      3858      1286  TIP3      H2             26.0756528566       -1.7984812121       -4.5177514987  W2        1286            0.0000000000
      3859      1287  TIP3      OH2            25.2534428566        0.7807987879       -0.3021514987  W2        1287            0.0000000000
      3860      1287  TIP3      H1             26.0868628566        0.4027987879       -0.5827914987  W2        1287            0.0000000000
      3861      1287  TIP3      H2             25.3654728566        1.7239187879       -0.4212414987  W2        1287            0.0000000000
      3862      1288  TIP3      OH2            23.7396728566        3.6585487879        2.0046885013  W2        1288            0.0000000000
      3863      1288  TIP3      H1             23.0922028566        3.9836987879        2.6302085013  W2        1288            0.0000000000
      3864      1288  TIP3      H2             23.2220728566        3.2183187879        1.3305185013  W2        1288            0.0000000000
      3865      1289  TIP3      OH2            25.7626328566       -2.1031012121       -8.8587814987  W2        1289            0.0000000000
      3866      1289  TIP3      H1             25.2407428566       -1.7466912121       -9.5776914987  W2        1289            0.0000000000
      3867      1289  TIP3      H2             25.7295528566       -1.4283212121       -8.1806914987  W2        1289            0.0000000000
      3868      1290  TIP3      OH2            24.1115328566       -4.8635412121      -10.3080714987  W2        1290            0.0000000000
      3869      1290  TIP3      H1             24.2079728566       -4.1968412121      -10.9881014987  W2        1290            0.0000000000
      3870      1290  TIP3      H2             23.9714928566       -5.6789112121      -10.7895214987  W2        1290            0.0000000000
      3871      1291  TIP3      OH2            23.2810028566       -3.4833012121       -4.6870414987  W2        1291            0.0000000000
      3872      1291  TIP3      H1             23.1308828566       -4.4284412121       -4.7072614987  W2        1291            0.0000000000
      3873      1291  TIP3      H2             22.9274528566       -3.2021612121       -3.8431314987  W2        1291            0.0000000000
      3874      1292  TIP3      OH2             8.3162428566       -1.4050812121       -0.6766614987  W2        1292            0.0000000000
      3875      1292  TIP3      H1              8.5005328566       -1.4869112121       -1.6123714987  W2        1292            0.0000000000
      3876      1292  TIP3      H2              9.1655328566       -1.5293812121       -0.2530214987  W2        1292            0.0000000000
      3877      1293  TIP3      OH2            24.1372928566       -1.5129712121        4.9517885013  W2        1293            0.0000000000
      3878      1293  TIP3      H1             24.7200228566       -2.2477412121        5.1435085013  W2        1293            0.0000000000
      3879      1293  TIP3      H2             24.7012228566       -0.7409412121        4.9983685013  W2        1293            0.0000000000
      3880      1294  TIP3      OH2            25.6340028566       -3.6103912121        5.6363285013  W2        1294            0.0000000000
      3881      1294  TIP3      H1             24.7706728566       -3.9891812121        5.4707985013  W2        1294            0.0000000000
      3882      1294  TIP3      H2             26.2383728566       -4.3489112121        5.5619085013  W2        1294            0.0000000000
      3883      1295  TIP3      OH2            23.3589128566       -7.4555612121      -11.1905214987  W2        1295            0.0000000000
      3884      1295  TIP3      H1             23.9694928566       -7.8268812121      -10.5537014987  W2        1295            0.0000000000
      3885      1295  TIP3      H2             22.5220628566       -7.8768712121      -10.9945214987  W2        1295            0.0000000000
      3886      1296  TIP3      OH2            22.9914828566       -5.9007212121       -6.2245314987  W2        1296            0.0000000000
      3887      1296  TIP3      H1             23.2711928566       -6.8076812121       -6.1003614987  W2        1296            0.0000000000
      3888      1296  TIP3      H2             23.7506528566       -5.4665712121       -6.6136114987  W2        1296            0.0000000000
      3889      1297  TIP3      OH2            23.6033128566       -5.3189812121       -0.7886414987  W2        1297            0.0000000000
      3890      1297  TIP3      H1             24.5361128566       -5.1069912121       -0.8230414987  W2        1297            0.0000000000
      3891      1297  TIP3      H2             23.3680628566       -5.2177712121        0.1336585013  W2        1297            0.0000000000
      3892      1298  TIP3      OH2            23.6325028566       -4.5824512121        1.9872985013  W2        1298            0.0000000000
      3893      1298  TIP3      H1             22.7896328566       -4.3144112121        2.3532785013  W2        1298            0.0000000000
      3894      1298  TIP3      H2             24.0749328566       -3.7602612121        1.7764085013  W2        1298            0.0000000000
      3895      1299  TIP3      OH2             7.9137228566       -6.1345812121        5.4642185013  W2        1299            0.0000000000
      3896      1299  TIP3      H1              8.8332128566       -6.2567512121        5.7005285013  W2        1299            0.0000000000
      3897      1299  TIP3      H2              7.4641728566       -6.8846112121        5.8535685013  W2        1299            0.0000000000
      3898      1300  TIP3      OH2            25.9156628566      -10.6024312121        7.3407985013  W2        1300            0.0000000000
      3899      1300  TIP3      H1             26.2653628566      -11.2560812121        6.7352685013  W2        1300            0.0000000000
      3900      1300  TIP3      H2             26.0626128566       -9.7650212121        6.9010585013  W2        1300            0.0000000000
      3901      1301  TIP3      OH2            23.6049628566       -8.6377912121       -6.1763314987  W2        1301            0.0000000000
      3902      1301  TIP3      H1             23.7874628566       -9.0866412121       -5.3508314987  W2        1301            0.0000000000
      3903      1301  TIP3      H2             23.0052528566       -9.2223512121       -6.6398714987  W2        1301            0.0000000000
      3904      1302  TIP3      OH2             9.1349728566       -7.8224212121       -1.6444914987  W2        1302            0.0000000000
      3905      1302  TIP3      H1              9.5801328566       -8.6141712121       -1.3425214987  W2        1302            0.0000000000
      3906      1302  TIP3      H2              9.6012728566       -7.1059012121       -1.2139314987  W2        1302            0.0000000000
      3907      1303  TIP3      OH2             7.4390028566       -4.8231212121       -0.5754714987  W2        1303            0.0000000000
      3908      1303  TIP3      H1              7.9309828566       -5.0440712121       -1.3662714987  W2        1303            0.0000000000
      3909      1303  TIP3      H2              7.8010928566       -3.9827812121       -0.2945214987  W2        1303            0.0000000000
      3910      1304  TIP3      OH2            25.4353828566       -8.4929712121        5.6899285013  W2        1304            0.0000000000
      3911      1304  TIP3      H1             24.5179528566       -8.2222612121        5.6542785013  W2        1304            0.0000000000
      3912      1304  TIP3      H2             25.5583228566       -9.0281312121        4.9058985013  W2        1304            0.0000000000
      3913      1305  TIP3      OH2            25.4715828566       -8.5699812121       -9.6483014987  W2        1305            0.0000000000
      3914      1305  TIP3      H1             25.8838428566       -9.2914112121      -10.1235014987  W2        1305            0.0000000000
      3915      1305  TIP3      H2             26.1532328566       -7.9005212121       -9.5898714987  W2        1305            0.0000000000
      3916      1306  TIP3      OH2             7.7526528566       -8.5652112121       -6.5212314987  W2        1306            0.0000000000
      3917      1306  TIP3      H1              6.8274928566       -8.3565512121       -6.6506814987  W2        1306            0.0000000000
      3918      1306  TIP3      H2              8.2066428566       -8.0811312121       -7.2110014987  W2        1306            0.0000000000
      3919      1307  TIP3      OH2            22.5233728566        6.4189587879       -4.5754914987  W2        1307            0.0000000000
      3920      1307  TIP3      H1             23.1756628566        6.0711687879       -5.1835814987  W2        1307            0.0000000000
      3921      1307  TIP3      H2             23.0337528566        6.9072787879       -3.9295214987  W2        1307            0.0000000000
      3922      1308  TIP3      OH2             7.7161928566       -9.8273112121        1.8230185013  W2        1308            0.0000000000
      3923      1308  TIP3      H1              7.0512428566      -10.0732812121        2.4661085013  W2        1308            0.0000000000
      3924      1308  TIP3      H2              7.2733228566       -9.2052712121        1.2458185013  W2        1308            0.0000000000
      3925      1309  TIP3      OH2             9.9081228566        3.3480987879        5.9675985013  W2        1309            0.0000000000
      3926      1309  TIP3      H1              9.0873728566        3.5227487879        5.5070685013  W2        1309            0.0000000000
      3927      1309  TIP3      H2              9.6559028566        3.2745687879        6.8880385013  W2        1309            0.0000000000
      3928      1310  TIP3      OH2            12.8624128566        4.3222187879        2.2259985013  W2        1310            0.0000000000
      3929      1310  TIP3      H1             12.4375228566        5.1320687879        1.9434585013  W2        1310            0.0000000000
      3930      1310  TIP3      H2             13.7666928566        4.4076287879        1.9239785013  W2        1310            0.0000000000
      3931      1311  TIP3      OH2            17.1735528566        5.7212187879        5.1853685013  W2        1311            0.0000000000
      3932      1311  TIP3      H1             17.3583028566        5.3878287879        6.0633985013  W2        1311            0.0000000000
      3933      1311  TIP3      H2             18.0200028566        6.0310787879        4.8632885013  W2        1311            0.0000000000
      3934      1312  TIP3      OH2            19.5185928566        7.0071087879        4.4295085013  W2        1312            0.0000000000
      3935      1312  TIP3      H1             20.1954828566        6.3743387879        4.1894285013  W2        1312            0.0000000000
      3936      1312  TIP3      H2             19.8404728566        7.4081587879        5.2368385013  W2        1312            0.0000000000
      3937      1313  TIP3      OH2            24.4359728566      -10.4033412121        3.5090085013  W2        1313            0.0000000000
      3938      1313  TIP3      H1             23.6233228566      -10.0783112121        3.1214785013  W2        1313            0.0000000000
      3939      1313  TIP3      H2             24.6688228566      -11.1634912121        2.9759185013  W2        1313            0.0000000000
      3940      1314  TIP3      OH2            10.2640828566        7.5786087879        2.2735285013  W2        1314            0.0000000000
      3941      1314  TIP3      H1              9.5437228566        8.0187087879        1.8222985013  W2        1314            0.0000000000
      3942      1314  TIP3      H2              9.8984828566        7.3280787879        3.1219285013  W2        1314            0.0000000000
      3943      1315  TIP3      OH2            12.7313428566        7.1789987879        1.3032485013  W2        1315            0.0000000000
      3944      1315  TIP3      H1             11.8665628566        7.2508487879        1.7072585013  W2        1315            0.0000000000
      3945      1315  TIP3      H2             12.6762428566        7.7257287879        0.5194985013  W2        1315            0.0000000000
      3946      1316  TIP3      OH2            17.4419028566        7.0668887879        0.4788485013  W2        1316            0.0000000000
      3947      1316  TIP3      H1             16.9853028566        7.5958587879       -0.1753114987  W2        1316            0.0000000000
      3948      1316  TIP3      H2             17.6047028566        7.6700287879        1.2040785013  W2        1316            0.0000000000
      3949      1317  TIP3      OH2            19.7695328566        5.9448487879        1.4238785013  W2        1317            0.0000000000
      3950      1317  TIP3      H1             18.8649028566        6.1098687879        1.1580885013  W2        1317            0.0000000000
      3951      1317  TIP3      H2             20.1983928566        6.7980687879        1.3582185013  W2        1317            0.0000000000
      3952      1318  TIP3      OH2            22.3737228566        7.5147587879        1.7186585013  W2        1318            0.0000000000
      3953      1318  TIP3      H1             22.1919228566        8.4306487879        1.5081485013  W2        1318            0.0000000000
      3954      1318  TIP3      H2             22.5505028566        7.1044687879        0.8721185013  W2        1318            0.0000000000
      3955      1319  TIP3      OH2             9.6788928566        6.2018587879       -0.8162914987  W2        1319            0.0000000000
      3956      1319  TIP3      H1              9.6604928566        5.7763687879        0.0409385013  W2        1319            0.0000000000
      3957      1319  TIP3      H2             10.4836828566        5.8833587879       -1.2250714987  W2        1319            0.0000000000
      3958      1320  TIP3      OH2            11.8202028566        4.9117287879       -2.1613014987  W2        1320            0.0000000000
      3959      1320  TIP3      H1             11.6012728566        3.9954687879       -1.9917014987  W2        1320            0.0000000000
      3960      1320  TIP3      H2             12.6444228566        5.0517687879       -1.6951614987  W2        1320            0.0000000000
      3961      1321  TIP3      OH2            14.3574528566        5.3816587879       -1.3125014987  W2        1321            0.0000000000
      3962      1321  TIP3      H1             14.5700228566        4.4935587879       -1.5994114987  W2        1321            0.0000000000
      3963      1321  TIP3      H2             14.4219628566        5.3474287879       -0.3581014987  W2        1321            0.0000000000
      3964      1322  TIP3      OH2            17.8658228566       -8.9542812121       -2.1681714987  W2        1322            0.0000000000
      3965      1322  TIP3      H1             17.1915028566       -9.5837212121       -1.9125914987  W2        1322            0.0000000000
      3966      1322  TIP3      H2             18.4297428566       -9.4383912121       -2.7713814987  W2        1322            0.0000000000
      3967      1323  TIP3      OH2            23.0085428566      -10.8468812121       -2.0554614987  W2        1323            0.0000000000
      3968      1323  TIP3      H1             23.6123028566      -10.2993412121       -2.5573614987  W2        1323            0.0000000000
      3969      1323  TIP3      H2             22.1387428566      -10.5278412121       -2.2960514987  W2        1323            0.0000000000
      3970      1324  TIP3      OH2            24.7355828566       -9.7080112121       -3.7223714987  W2        1324            0.0000000000
      3971      1324  TIP3      H1             25.3473328566      -10.2224412121       -4.2490114987  W2        1324            0.0000000000
      3972      1324  TIP3      H2             25.1179228566       -8.8308012121       -3.6989314987  W2        1324            0.0000000000
      3973      1325  TIP3      OH2            10.1925728566      -10.3202512121       -4.3461814987  W2        1325            0.0000000000
      3974      1325  TIP3      H1              9.4155528566      -10.5547612121       -4.8535914987  W2        1325            0.0000000000
      3975      1325  TIP3      H2             10.7229328566      -11.1170412121       -4.3373814987  W2        1325            0.0000000000
      3976      1326  TIP3      OH2             9.0289128566      -10.5224412121       -8.5425714987  W2        1326            0.0000000000
      3977      1326  TIP3      H1              9.4679828566       -9.9113912121       -9.1342214987  W2        1326            0.0000000000
      3978      1326  TIP3      H2              8.3951528566       -9.9840312121       -8.0685714987  W2        1326            0.0000000000
      3979      1327  TIP3      OH2            14.7718328566      -10.3935412121       -4.5328714987  W2        1327            0.0000000000
      3980      1327  TIP3      H1             15.6461728566      -10.0051112121       -4.5624414987  W2        1327            0.0000000000
      3981      1327  TIP3      H2             14.6359128566      -10.6087612121       -3.6101514987  W2        1327            0.0000000000
      3982      1328  TIP3      OH2            20.3286728566      -10.3635612121       -2.8837014987  W2        1328            0.0000000000
      3983      1328  TIP3      H1             20.4048328566      -10.2684012121       -3.8331014987  W2        1328            0.0000000000
      3984      1328  TIP3      H2             20.0535928566      -11.2712712121       -2.7547914987  W2        1328            0.0000000000
      3985      1329  TIP3      OH2            21.6819328566      -10.3377812121       -7.1912014987  W2        1329            0.0000000000
      3986      1329  TIP3      H1             20.9790428566       -9.7228612121       -7.4010614987  W2        1329            0.0000000000
      3987      1329  TIP3      H2             21.2370728566      -11.1751112121       -7.0601114987  W2        1329            0.0000000000
      3988      1330  TIP3      OH2             8.9298628566        5.4257787879       -7.6450614987  W2        1330            0.0000000000
      3989      1330  TIP3      H1              8.2448528566        5.3876687879       -8.3125514987  W2        1330            0.0000000000
      3990      1330  TIP3      H2              8.9335828566        6.3385387879       -7.3568514987  W2        1330            0.0000000000
      3991      1331  TIP3      OH2            10.8898228566       -8.6062912121      -10.1001614987  W2        1331            0.0000000000
      3992      1331  TIP3      H1             11.3811628566       -9.2360512121      -10.6276114987  W2        1331            0.0000000000
      3993      1331  TIP3      H2             11.5134528566       -8.3103512121       -9.4370414987  W2        1331            0.0000000000
      3994      1332  TIP3      OH2            15.9158328566       -8.3131412121       -7.6431114987  W2        1332            0.0000000000
      3995      1332  TIP3      H1             16.0939628566       -8.9598212121       -6.9602514987  W2        1332            0.0000000000
      3996      1332  TIP3      H2             15.8624528566       -7.4793712121       -7.1760014987  W2        1332            0.0000000000
      3997      1333  TIP3      OH2            17.7942128566        6.6352687879       -9.2474414987  W2        1333            0.0000000000
      3998      1333  TIP3      H1             18.6602328566        7.0020087879       -9.4256214987  W2        1333            0.0000000000
      3999      1333  TIP3      H2             17.5474928566        6.1960687879      -10.0613614987  W2        1333            0.0000000000
      4000      1334  TIP3      OH2            24.5031728566        6.1982987879       -6.5683314987  W2        1334            0.0000000000
      4001      1334  TIP3      H1             24.3088828566        5.4505087879       -7.1333714987  W2        1334            0.0000000000
      4002      1334  TIP3      H2             24.4641828566        6.9563087879       -7.1515414987  W2        1334            0.0000000000
      4003      1335  TIP3      OH2            10.1503728566       -9.8060612121        5.1714385013  W2        1335            0.0000000000
      4004      1335  TIP3      H1              9.7841928566      -10.5718012121        5.6139085013  W2        1335            0.0000000000
      4005      1335  TIP3      H2             11.0632228566       -9.7770412121        5.4579485013  W2        1335            0.0000000000
      4006      1336  TIP3      OH2            12.1234528566      -10.4556212121        6.7071485013  W2        1336            0.0000000000
      4007      1336  TIP3      H1             13.0218128566      -10.7296012121        6.5224885013  W2        1336            0.0000000000
      4008      1336  TIP3      H2             11.7367628566      -11.1980212121        7.1714085013  W2        1336            0.0000000000
      4009      1337  TIP3      OH2            10.7479828566        6.3458587879      -10.6198514987  W2        1337            0.0000000000
      4010      1337  TIP3      H1             10.4804428566        6.6321487879       -9.7465414987  W2        1337            0.0000000000
      4011      1337  TIP3      H2             11.5192428566        5.7997787879      -10.4676014987  W2        1337            0.0000000000
      4012      1338  TIP3      OH2            20.5446828566      -11.1230912121        6.8894285013  W2        1338            0.0000000000
      4013      1338  TIP3      H1             20.6214028566      -11.5490212121        7.7431985013  W2        1338            0.0000000000
      4014      1338  TIP3      H2             21.4383428566      -11.1096212121        6.5467785013  W2        1338            0.0000000000
      4015      1339  TIP3      OH2            23.7207928566        4.9495387879        5.5818485013  W2        1339            0.0000000000
      4016      1339  TIP3      H1             22.9389828566        4.7633387879        5.0619085013  W2        1339            0.0000000000
      4017      1339  TIP3      H2             23.6487828566        5.8789687879        5.7990985013  W2        1339            0.0000000000
      4018      1340  TIP3      OH2            29.4284628566       -2.2947412121        0.6243785013  W2        1340            0.0000000000
      4019      1340  TIP3      H1             29.4696728566       -2.9204112121        1.3476185013  W2        1340            0.0000000000
      4020      1340  TIP3      H2             30.1312328566       -1.6708812121        0.8064185013  W2        1340            0.0000000000
      4021      1341  TIP3      OH2            26.9618228566       -4.1845912121       -5.4478314987  W2        1341            0.0000000000
      4022      1341  TIP3      H1             26.5141628566       -3.3387212121       -5.4661814987  W2        1341            0.0000000000
      4023      1341  TIP3      H2             26.4009428566       -4.7641712121       -5.9633214987  W2        1341            0.0000000000
      4024      1342  TIP3      OH2            27.6724328566       -2.0226312121       -3.3220314987  W2        1342            0.0000000000
      4025      1342  TIP3      H1             27.8857828566       -2.7924712121       -2.7947314987  W2        1342            0.0000000000
      4026      1342  TIP3      H2             28.4101928566       -1.9329612121       -3.9252714987  W2        1342            0.0000000000
      4027      1343  TIP3      OH2            28.3650828566       -4.5843512121       -2.2004114987  W2        1343            0.0000000000
      4028      1343  TIP3      H1             29.0187428566       -5.1341812121       -1.7684014987  W2        1343            0.0000000000
      4029      1343  TIP3      H2             28.3890128566       -4.8584512121       -3.1172114987  W2        1343            0.0000000000
      4030      1344  TIP3      OH2            27.6527828566        1.2475687879       -7.0320214987  W2        1344            0.0000000000
      4031      1344  TIP3      H1             27.3808728566        1.4766687879       -7.9207314987  W2        1344            0.0000000000
      4032      1344  TIP3      H2             27.6983528566        2.0854487879       -6.5714914987  W2        1344            0.0000000000
      4033      1345  TIP3      OH2            26.9825028566        0.3522787879        2.3029485013  W2        1345            0.0000000000
      4034      1345  TIP3      H1             26.4813428566        0.3242187879        1.4879185013  W2        1345            0.0000000000
      4035      1345  TIP3      H2             26.9878728566       -0.5534012121        2.6126785013  W2        1345            0.0000000000
      4036      1346  TIP3      OH2            26.7327728566        3.1326587879       -0.8130314987  W2        1346            0.0000000000
      4037      1346  TIP3      H1             27.6788328566        2.9883587879       -0.8320814987  W2        1346            0.0000000000
      4038      1346  TIP3      H2             26.6204028566        3.9169387879       -0.2759114987  W2        1346            0.0000000000
      4039      1347  TIP3      OH2            29.2315528566        1.6758187879        3.3462285013  W2        1347            0.0000000000
      4040      1347  TIP3      H1             29.4476828566        1.3143787879        4.2058085013  W2        1347            0.0000000000
      4041      1347  TIP3      H2             28.3760228566        1.3011987879        3.1365785013  W2        1347            0.0000000000
      4042      1348  TIP3      OH2            29.6914128566       -4.5683312121        2.3038685013  W2        1348            0.0000000000
      4043      1348  TIP3      H1             29.6533528566       -4.1681712121        3.1725785013  W2        1348            0.0000000000
      4044      1348  TIP3      H2             29.2005228566       -5.3850912121        2.3941585013  W2        1348            0.0000000000
      4045      1349  TIP3      OH2            26.2994928566       -7.4521512121       -3.8456614987  W2        1349            0.0000000000
      4046      1349  TIP3      H1             26.9302628566       -7.4809412121       -3.1262714987  W2        1349            0.0000000000
      4047      1349  TIP3      H2             26.7489228566       -7.8772812121       -4.5760714987  W2        1349            0.0000000000
      4048      1350  TIP3      OH2            27.5737028566       -6.7059512121       -8.4216214987  W2        1350            0.0000000000
      4049      1350  TIP3      H1             28.0478728566       -6.1149612121       -9.0065314987  W2        1350            0.0000000000
      4050      1350  TIP3      H2             26.8563428566       -6.1756612121       -8.0746114987  W2        1350            0.0000000000
      4051      1351  TIP3      OH2            29.3481428566       -5.6112912121       -4.7381614987  W2        1351            0.0000000000
      4052      1351  TIP3      H1             28.4589428566       -5.5117412121       -5.0782014987  W2        1351            0.0000000000
      4053      1351  TIP3      H2             29.6446328566       -6.4529912121       -5.0843714987  W2        1351            0.0000000000
      4054      1352  TIP3      OH2            29.8104828566        0.1403787879        5.5840685013  W2        1352            0.0000000000
      4055      1352  TIP3      H1             30.5427228566        0.3949687879        6.1455185013  W2        1352            0.0000000000
      4056      1352  TIP3      H2             29.0303528566        0.3449187879        6.0996085013  W2        1352            0.0000000000
      4057      1353  TIP3      OH2            27.1434228566       -2.0955512121        3.5053585013  W2        1353            0.0000000000
      4058      1353  TIP3      H1             27.3662828566       -2.5135912121        4.3371085013  W2        1353            0.0000000000
      4059      1353  TIP3      H2             26.5414328566       -2.7080512121        3.0826385013  W2        1353            0.0000000000
      4060      1354  TIP3      OH2            28.2651628566       -2.1760112121       -9.8181014987  W2        1354            0.0000000000
      4061      1354  TIP3      H1             28.8811528566       -1.5492912121       -9.4386214987  W2        1354            0.0000000000
      4062      1354  TIP3      H2             27.4034228566       -1.8600312121       -9.5464514987  W2        1354            0.0000000000
      4063      1355  TIP3      OH2            28.7773728566       -7.3422812121        3.0634985013  W2        1355            0.0000000000
      4064      1355  TIP3      H1             27.8846028566       -7.0037412121        2.9958985013  W2        1355            0.0000000000
      4065      1355  TIP3      H2             28.6786528566       -8.1976712121        3.4815785013  W2        1355            0.0000000000
      4066      1356  TIP3      OH2            28.4285728566        4.4621587879        1.4984385013  W2        1356            0.0000000000
      4067      1356  TIP3      H1             28.6456028566        3.5303987879        1.4674085013  W2        1356            0.0000000000
      4068      1356  TIP3      H2             28.6749228566        4.7366587879        2.3817185013  W2        1356            0.0000000000
      4069      1357  TIP3      OH2            29.6802028566       -0.2636312121       -8.3255414987  W2        1357            0.0000000000
      4070      1357  TIP3      H1             28.9941328566        0.0886187879       -7.7585714987  W2        1357            0.0000000000
      4071      1357  TIP3      H2             30.2029928566        0.4993287879       -8.5721114987  W2        1357            0.0000000000
      4072      1358  TIP3      OH2            28.6120128566       -4.9854412121      -10.3128214987  W2        1358            0.0000000000
      4073      1358  TIP3      H1             28.5672728566       -4.0461312121      -10.1341214987  W2        1358            0.0000000000
      4074      1358  TIP3      H2             27.7243328566       -5.2209512121      -10.5826114987  W2        1358            0.0000000000
      4075      1359  TIP3      OH2            29.4202128566      -10.2037812121       -1.6397214987  W2        1359            0.0000000000
      4076      1359  TIP3      H1             29.1911928566      -10.1445312121       -2.5672214987  W2        1359            0.0000000000
      4077      1359  TIP3      H2             28.9775528566      -10.9952312121       -1.3333114987  W2        1359            0.0000000000
      4078      1360  TIP3      OH2            28.3505428566        3.7369287879       -5.4791414987  W2        1360            0.0000000000
      4079      1360  TIP3      H1             27.5184028566        4.2091987879       -5.4520014987  W2        1360            0.0000000000
      4080      1360  TIP3      H2             28.8963728566        4.2466887879       -6.0778314987  W2        1360            0.0000000000
      4081      1361  TIP3      OH2            27.6389128566        6.3492987879        5.8506585013  W2        1361            0.0000000000
      4082      1361  TIP3      H1             28.1791328566        6.1326987879        6.6105785013  W2        1361            0.0000000000
      4083      1361  TIP3      H2             27.1577128566        5.5438987879        5.6609085013  W2        1361            0.0000000000
      4084      1362  TIP3      OH2            27.5458628566        0.1597087879        6.8050885013  W2        1362            0.0000000000
      4085      1362  TIP3      H1             27.6899128566       -0.7422212121        6.5187585013  W2        1362            0.0000000000
      4086      1362  TIP3      H2             26.7736028566        0.4459187879        6.3173185013  W2        1362            0.0000000000
      4087      1363  TIP3      OH2            28.3785128566       -2.6399612121        6.2250185013  W2        1363            0.0000000000
      4088      1363  TIP3      H1             28.7866328566       -3.4973012121        6.1040785013  W2        1363            0.0000000000
      4089      1363  TIP3      H2             28.1182728566       -2.6258312121        7.1460485013  W2        1363            0.0000000000
      4090      1364  TIP3      OH2            29.3238228566       -7.1575812121        6.2976485013  W2        1364            0.0000000000
      4091      1364  TIP3      H1             29.5355628566       -7.8639712121        5.6873985013  W2        1364            0.0000000000
      4092      1364  TIP3      H2             29.2125728566       -7.5949812121        7.1417685013  W2        1364            0.0000000000
      4093      1365  TIP3      OH2            27.5733128566        2.0458287879      -10.0101614987  W2        1365            0.0000000000
      4094      1365  TIP3      H1             28.4872328566        2.1247187879       -9.7367714987  W2        1365            0.0000000000
      4095      1365  TIP3      H2             27.5806228566        1.3587887879      -10.6766014987  W2        1365            0.0000000000
      4096      1366  TIP3      OH2            26.2223728566        7.4386787879       -4.9327714987  W2        1366            0.0000000000
      4097      1366  TIP3      H1             25.5750828566        6.9768487879       -5.4656514987  W2        1366            0.0000000000
      4098      1366  TIP3      H2             26.5768328566        6.7670087879       -4.3501514987  W2        1366            0.0000000000
      4099      1367  TIP3      OH2            27.0922928566        5.5193787879       -3.1281514987  W2        1367            0.0000000000
      4100      1367  TIP3      H1             26.7579728566        4.6391087879       -2.9561314987  W2        1367            0.0000000000
      4101      1367  TIP3      H2             27.3145328566        5.8648787879       -2.2635914987  W2        1367            0.0000000000
      4102      1368  TIP3      OH2            27.1722428566       -1.4050812121       -0.6766614987  W2        1368            0.0000000000
      4103      1368  TIP3      H1             27.3565328566       -1.4869112121       -1.6123714987  W2        1368            0.0000000000
      4104      1368  TIP3      H2             28.0215328566       -1.5293812121       -0.2530214987  W2        1368            0.0000000000
      4105      1369  TIP3      OH2            26.7697228566       -6.1345812121        5.4642185013  W2        1369            0.0000000000
      4106      1369  TIP3      H1             27.6892128566       -6.2567512121        5.7005285013  W2        1369            0.0000000000
      4107      1369  TIP3      H2             26.3201728566       -6.8846112121        5.8535685013  W2        1369            0.0000000000
      4108      1370  TIP3      OH2            27.9909728566       -7.8224212121       -1.6444914987  W2        1370            0.0000000000
      4109      1370  TIP3      H1             28.4361328566       -8.6141712121       -1.3425214987  W2        1370            0.0000000000
      4110      1370  TIP3      H2             28.4572728566       -7.1059012121       -1.2139314987  W2        1370            0.0000000000
      4111      1371  TIP3      OH2            26.2950028566       -4.8231212121       -0.5754714987  W2        1371            0.0000000000
      4112      1371  TIP3      H1             26.7869828566       -5.0440712121       -1.3662714987  W2        1371            0.0000000000
      4113      1371  TIP3      H2             26.6570928566       -3.9827812121       -0.2945214987  W2        1371            0.0000000000
      4114      1372  TIP3      OH2            26.6086528566       -8.5652112121       -6.5212314987  W2        1372            0.0000000000
      4115      1372  TIP3      H1             25.6834928566       -8.3565512121       -6.6506814987  W2        1372            0.0000000000
      4116      1372  TIP3      H2             27.0626428566       -8.0811312121       -7.2110014987  W2        1372            0.0000000000
      4117      1373  TIP3      OH2            26.5721928566       -9.8273112121        1.8230185013  W2        1373            0.0000000000
      4118      1373  TIP3      H1             25.9072428566      -10.0732812121        2.4661085013  W2        1373            0.0000000000
      4119      1373  TIP3      H2             26.1293228566       -9.2052712121        1.2458185013  W2        1373            0.0000000000
      4120      1374  TIP3      OH2            28.7641228566        3.3480987879        5.9675985013  W2        1374            0.0000000000
      4121      1374  TIP3      H1             27.9433728566        3.5227487879        5.5070685013  W2        1374            0.0000000000
      4122      1374  TIP3      H2             28.5119028566        3.2745687879        6.8880385013  W2        1374            0.0000000000
      4123      1375  TIP3      OH2            29.1200828566        7.5786087879        2.2735285013  W2        1375            0.0000000000
      4124      1375  TIP3      H1             28.3997228566        8.0187087879        1.8222985013  W2        1375            0.0000000000
      4125      1375  TIP3      H2             28.7544828566        7.3280787879        3.1219285013  W2        1375            0.0000000000
      4126      1376  TIP3      OH2            28.5348928566        6.2018587879       -0.8162914987  W2        1376            0.0000000000
      4127      1376  TIP3      H1             28.5164928566        5.7763687879        0.0409385013  W2        1376            0.0000000000
      4128      1376  TIP3      H2             29.3396828566        5.8833587879       -1.2250714987  W2        1376            0.0000000000
      4129      1377  TIP3      OH2            29.0485728566      -10.3202512121       -4.3461814987  W2        1377            0.0000000000
      4130      1377  TIP3      H1             28.2715528566      -10.5547612121       -4.8535914987  W2        1377            0.0000000000
      4131      1377  TIP3      H2             29.5789328566      -11.1170412121       -4.3373814987  W2        1377            0.0000000000
      4132      1378  TIP3      OH2            27.8849128566      -10.5224412121       -8.5425714987  W2        1378            0.0000000000
      4133      1378  TIP3      H1             28.3239828566       -9.9113912121       -9.1342214987  W2        1378            0.0000000000
      4134      1378  TIP3      H2             27.2511528566       -9.9840312121       -8.0685714987  W2        1378            0.0000000000
      4135      1379  TIP3      OH2            27.7858628566        5.4257787879       -7.6450614987  W2        1379            0.0000000000
      4136      1379  TIP3      H1             27.1008528566        5.3876687879       -8.3125514987  W2        1379            0.0000000000
      4137      1379  TIP3      H2             27.7895828566        6.3385387879       -7.3568514987  W2        1379            0.0000000000
      4138      1380  TIP3      OH2            29.7458228566       -8.6062912121      -10.1001614987  W2        1380            0.0000000000
      4139      1380  TIP3      H1             30.2371628566       -9.2360512121      -10.6276114987  W2        1380            0.0000000000
      4140      1380  TIP3      H2             30.3694528566       -8.3103512121       -9.4370414987  W2        1380            0.0000000000
      4141      1381  TIP3      OH2            29.0063728566       -9.8060612121        5.1714385013  W2        1381            0.0000000000
      4142      1381  TIP3      H1             28.6401928566      -10.5718012121        5.6139085013  W2        1381            0.0000000000
      4143      1381  TIP3      H2             29.9192228566       -9.7770412121        5.4579485013  W2        1381            0.0000000000
      4144      1382  TIP3      OH2            29.6039828566        6.3458587879      -10.6198514987  W2        1382            0.0000000000
      4145      1382  TIP3      H1             29.3364428566        6.6321487879       -9.7465414987  W2        1382            0.0000000000
      4146      1382  TIP3      H2             30.3752428566        5.7997787879      -10.4676014987  W2        1382            0.0000000000
      4147      1383  TIP3      OH2           -18.4411671434       17.6919787879       -4.3874314987  W2        1383            0.0000000000
      4148      1383  TIP3      H1            -18.3520571434       18.6357987879       -4.5197214987  W2        1383            0.0000000000
      4149      1383  TIP3      H2            -19.0794071434       17.4166187879       -5.0454914987  W2        1383            0.0000000000
      4150      1384  TIP3      OH2           -19.5080371434       16.9470487879       -0.9686114987  W2        1384            0.0000000000
      4151      1384  TIP3      H1            -19.5462871434       16.3006787879       -0.2636514987  W2        1384            0.0000000000
      4152      1384  TIP3      H2            -19.8303871434       16.4804887879       -1.7397414987  W2        1384            0.0000000000
      4153      1385  TIP3      OH2           -27.1395371434       16.5612587879        0.6243785013  W2        1385            0.0000000000
      4154      1385  TIP3      H1            -27.0983271434       15.9355887879        1.3476185013  W2        1385            0.0000000000
      4155      1385  TIP3      H2            -26.4367671434       17.1851187879        0.8064185013  W2        1385            0.0000000000
      4156      1386  TIP3      OH2           -15.8020171434       19.8860887879       -2.6671014987  W2        1386            0.0000000000
      4157      1386  TIP3      H1            -16.2427471434       19.1656887879       -2.2165414987  W2        1386            0.0000000000
      4158      1386  TIP3      H2            -15.8150471434       20.6068087879       -2.0373314987  W2        1386            0.0000000000
      4159      1387  TIP3      OH2           -26.2162271434       21.0111487879       -0.8407114987  W2        1387            0.0000000000
      4160      1387  TIP3      H1            -26.5857071434       20.2091987879       -1.2102814987  W2        1387            0.0000000000
      4161      1387  TIP3      H2            -25.2751171434       20.8426387879       -0.7943714987  W2        1387            0.0000000000
      4162      1388  TIP3      OH2           -29.6061771434       14.6714087879       -5.4478314987  W2        1388            0.0000000000
      4163      1388  TIP3      H1            -30.0538371434       15.5172787879       -5.4661814987  W2        1388            0.0000000000
      4164      1388  TIP3      H2            -30.1670571434       14.0918287879       -5.9633214987  W2        1388            0.0000000000
      4165      1389  TIP3      OH2           -28.8955671434       16.8333687879       -3.3220314987  W2        1389            0.0000000000
      4166      1389  TIP3      H1            -28.6822171434       16.0635287879       -2.7947314987  W2        1389            0.0000000000
      4167      1389  TIP3      H2            -28.1578071434       16.9230387879       -3.9252714987  W2        1389            0.0000000000
      4168      1390  TIP3      OH2           -18.6904671434       24.9902587879       -2.4550614987  W2        1390            0.0000000000
      4169      1390  TIP3      H1            -18.0708271434       24.3137287879       -2.7281414987  W2        1390            0.0000000000
      4170      1390  TIP3      H2            -18.8987271434       24.7723387879       -1.5465714987  W2        1390            0.0000000000
      4171      1391  TIP3      OH2           -21.1185971434       19.3791887879       -0.5625114987  W2        1391            0.0000000000
      4172      1391  TIP3      H1            -20.8148071434       18.6933287879       -1.1571014987  W2        1391            0.0000000000
      4173      1391  TIP3      H2            -20.3971971434       19.4980587879        0.0552885013  W2        1391            0.0000000000
      4174      1392  TIP3      OH2           -12.4556171434       10.9807187879        0.2981085013  W2        1392            0.0000000000
      4175      1392  TIP3      H1            -12.4063971434       11.5908387879        1.0340185013  W2        1392            0.0000000000
      4176      1392  TIP3      H2            -12.0301071434       11.4418087879       -0.4247814987  W2        1392            0.0000000000
      4177      1393  TIP3      OH2           -17.9778971434       13.7734287879       -0.2350314987  W2        1393            0.0000000000
      4178      1393  TIP3      H1            -17.8353071434       12.8271287879       -0.2148714987  W2        1393            0.0000000000
      4179      1393  TIP3      H2            -18.0839971434       13.9804087879       -1.1635414987  W2        1393            0.0000000000
      4180      1394  TIP3      OH2           -24.8230671434       11.8750687879       -2.9625514987  W2        1394            0.0000000000
      4181      1394  TIP3      H1            -24.7799571434       12.7349187879       -3.3809214987  W2        1394            0.0000000000
      4182      1394  TIP3      H2            -25.2806571434       11.3225387879       -3.5962314987  W2        1394            0.0000000000
      4183      1395  TIP3      OH2           -17.1007971434       12.0056287879       -4.5617214987  W2        1395            0.0000000000
      4184      1395  TIP3      H1            -16.4543671434       11.6769487879       -3.9369614987  W2        1395            0.0000000000
      4185      1395  TIP3      H2            -16.5908571434       12.5235287879       -5.1845814987  W2        1395            0.0000000000
      4186      1396  TIP3      OH2           -28.2029171434       14.2716487879       -2.2004114987  W2        1396            0.0000000000
      4187      1396  TIP3      H1            -27.5492571434       13.7218187879       -1.7684014987  W2        1396            0.0000000000
      4188      1396  TIP3      H2            -28.1789871434       13.9975487879       -3.1172114987  W2        1396            0.0000000000
      4189      1397  TIP3      OH2           -23.0464671434       15.8217787879       -2.9852614987  W2        1397            0.0000000000
      4190      1397  TIP3      H1            -22.4303671434       15.2953187879       -2.4758614987  W2        1397            0.0000000000
      4191      1397  TIP3      H2            -23.6325871434       15.1816487879       -3.3889014987  W2        1397            0.0000000000
      4192      1398  TIP3      OH2           -12.0641571434       12.4586387879        2.5340885013  W2        1398            0.0000000000
      4193      1398  TIP3      H1            -12.7526971434       13.1167087879        2.4387485013  W2        1398            0.0000000000
      4194      1398  TIP3      H2            -12.0486971434       12.2614287879        3.4706285013  W2        1398            0.0000000000
      4195      1399  TIP3      OH2           -26.0128771434       10.7929087879        1.1115285013  W2        1399            0.0000000000
      4196      1399  TIP3      H1            -26.2317071434       11.3229687879        0.3451285013  W2        1399            0.0000000000
      4197      1399  TIP3      H2            -26.6807871434       11.0194587879        1.7586685013  W2        1399            0.0000000000
      4198      1400  TIP3      OH2           -18.6438971434       20.2930187879       -5.3445614987  W2        1400            0.0000000000
      4199      1400  TIP3      H1            -18.9393871434       19.9702487879       -6.1958714987  W2        1400            0.0000000000
      4200      1400  TIP3      H2            -18.9681171434       21.1926887879       -5.3033014987  W2        1400            0.0000000000
      4201      1401  TIP3      OH2           -23.4437371434       18.4684787879        1.3988985013  W2        1401            0.0000000000
      4202      1401  TIP3      H1            -24.1838271434       19.0666287879        1.5024185013  W2        1401            0.0000000000
      4203      1401  TIP3      H2            -22.7297871434       19.0224387879        1.0832585013  W2        1401            0.0000000000
      4204      1402  TIP3      OH2           -15.3369571434       11.2965587879       -2.5811314987  W2        1402            0.0000000000
      4205      1402  TIP3      H1            -15.5521571434       10.5308987879       -2.0485314987  W2        1402            0.0000000000
      4206      1402  TIP3      H2            -14.6812171434       11.7690187879       -2.0682814987  W2        1402            0.0000000000
      4207      1403  TIP3      OH2           -26.4191471434       12.6850887879       -0.9362514987  W2        1403            0.0000000000
      4208      1403  TIP3      H1            -25.8055171434       13.3178487879       -0.5630114987  W2        1403            0.0000000000
      4209      1403  TIP3      H2            -25.9070771434       12.2125887879       -1.5925614987  W2        1403            0.0000000000
      4210      1404  TIP3      OH2           -25.0363071434       20.4327787879        2.1860485013  W2        1404            0.0000000000
      4211      1404  TIP3      H1            -25.0415471434       21.3121287879        1.8079785013  W2        1404            0.0000000000
      4212      1404  TIP3      H2            -25.8898971434       20.3491887879        2.6110385013  W2        1404            0.0000000000
      4213      1405  TIP3      OH2           -28.9152171434       20.1035687879       -7.0320214987  W2        1405            0.0000000000
      4214      1405  TIP3      H1            -29.1871271434       20.3326687879       -7.9207314987  W2        1405            0.0000000000
      4215      1405  TIP3      H2            -28.8696471434       20.9414487879       -6.5714914987  W2        1405            0.0000000000
      4216      1406  TIP3      OH2           -15.2902471434       21.7251587879       -0.3191714987  W2        1406            0.0000000000
      4217      1406  TIP3      H1            -16.2318771434       21.7835487879       -0.1574814987  W2        1406            0.0000000000
      4218      1406  TIP3      H2            -15.0136371434       22.6312087879       -0.4562014987  W2        1406            0.0000000000
      4219      1407  TIP3      OH2           -14.9895471434       10.0116887879        1.0982185013  W2        1407            0.0000000000
      4220      1407  TIP3      H1            -15.7256271434       10.6223987879        1.0603485013  W2        1407            0.0000000000
      4221      1407  TIP3      H2            -14.3061471434       10.4265887879        0.5718585013  W2        1407            0.0000000000
      4222      1408  TIP3      OH2           -21.9864071434        8.0984187879       -1.4359814987  W2        1408            0.0000000000
      4223      1408  TIP3      H1            -22.1039871434        7.1500187879       -1.4901514987  W2        1408            0.0000000000
      4224      1408  TIP3      H2            -22.8413971434        8.4310287879       -1.1628714987  W2        1408            0.0000000000
      4225      1409  TIP3      OH2           -17.0381271434       23.5065087879       -3.6940114987  W2        1409            0.0000000000
      4226      1409  TIP3      H1            -16.6128971434       22.7992987879       -4.1790514987  W2        1409            0.0000000000
      4227      1409  TIP3      H2            -16.7211271434       24.3077787879       -4.1107914987  W2        1409            0.0000000000
      4228      1410  TIP3      OH2           -15.8784771434       21.4073587879       -5.1853514987  W2        1410            0.0000000000
      4229      1410  TIP3      H1            -16.1359971434       20.7173687879       -5.7967614987  W2        1410            0.0000000000
      4230      1410  TIP3      H2            -15.8073971434       20.9644787879       -4.3397614987  W2        1410            0.0000000000
      4231      1411  TIP3      OH2           -14.1924571434       19.9740287879        3.2919985013  W2        1411            0.0000000000
      4232      1411  TIP3      H1            -14.0528271434       19.3822787879        2.5526985013  W2        1411            0.0000000000
      4233      1411  TIP3      H2            -14.0251771434       20.8466187879        2.9358785013  W2        1411            0.0000000000
      4234      1412  TIP3      OH2           -19.7199171434       16.9359787879       -6.9354014987  W2        1412            0.0000000000
      4235      1412  TIP3      H1            -20.4313671434       17.4709487879       -7.2873514987  W2        1412            0.0000000000
      4236      1412  TIP3      H2            -19.0289571434       16.9911887879       -7.5955114987  W2        1412            0.0000000000
      4237      1413  TIP3      OH2           -19.6659971434       15.3934087879       -9.8969014987  W2        1413            0.0000000000
      4238      1413  TIP3      H1            -18.9650071434       15.4160987879       -9.2455014987  W2        1413            0.0000000000
      4239      1413  TIP3      H2            -19.3637071434       14.7653787879      -10.5529714987  W2        1413            0.0000000000
      4240      1414  TIP3      OH2           -12.3505271434       16.3138287879        1.3580385013  W2        1414            0.0000000000
      4241      1414  TIP3      H1            -13.0031171434       17.0083887879        1.4471285013  W2        1414            0.0000000000
      4242      1414  TIP3      H2            -11.8854971434       16.5239187879        0.5481985013  W2        1414            0.0000000000
      4243      1415  TIP3      OH2           -16.3141471434       17.1453087879       -5.9838114987  W2        1415            0.0000000000
      4244      1415  TIP3      H1            -17.0460471434       17.3736787879       -5.4107514987  W2        1415            0.0000000000
      4245      1415  TIP3      H2            -15.8669271434       16.4315787879       -5.5290614987  W2        1415            0.0000000000
      4246      1416  TIP3      OH2           -16.4167971434       15.3195687879        3.0838885013  W2        1416            0.0000000000
      4247      1416  TIP3      H1            -16.3368871434       16.0830087879        3.6557385013  W2        1416            0.0000000000
      4248      1416  TIP3      H2            -17.0180271434       15.5988087879        2.3933985013  W2        1416            0.0000000000
      4249      1417  TIP3      OH2           -24.6687771434       17.7759287879       -4.1013114987  W2        1417            0.0000000000
      4250      1417  TIP3      H1            -24.9992571434       17.4052687879       -4.9196114987  W2        1417            0.0000000000
      4251      1417  TIP3      H2            -24.0803671434       17.1053287879       -3.7544814987  W2        1417            0.0000000000
      4252      1418  TIP3      OH2           -23.3020271434       21.2039887879       -1.4200914987  W2        1418            0.0000000000
      4253      1418  TIP3      H1            -23.3968971434       20.6252987879       -2.1766314987  W2        1418            0.0000000000
      4254      1418  TIP3      H2            -22.5726671434       20.8325587879       -0.9238114987  W2        1418            0.0000000000
      4255      1419  TIP3      OH2           -24.3022271434       16.5444887879       -0.4678114987  W2        1419            0.0000000000
      4256      1419  TIP3      H1            -23.7369771434       16.6659087879       -1.2306914987  W2        1419            0.0000000000
      4257      1419  TIP3      H2            -23.9833371434       17.1819887879        0.1710385013  W2        1419            0.0000000000
      4258      1420  TIP3      OH2           -17.9930071434       22.0476787879        0.2662385013  W2        1420            0.0000000000
      4259      1420  TIP3      H1            -18.2333471434       22.7099887879        0.9141585013  W2        1420            0.0000000000
      4260      1420  TIP3      H2            -18.1911871434       21.2131987879        0.6911985013  W2        1420            0.0000000000
      4261      1421  TIP3      OH2           -23.4221571434       20.9437587879        4.2493785013  W2        1421            0.0000000000
      4262      1421  TIP3      H1            -23.7334071434       21.7260787879        4.7046985013  W2        1421            0.0000000000
      4263      1421  TIP3      H2            -24.0721371434       20.7906687879        3.5635785013  W2        1421            0.0000000000
      4264      1422  TIP3      OH2           -17.4431971434       16.3075987879       -8.2986914987  W2        1422            0.0000000000
      4265      1422  TIP3      H1            -16.8636471434       16.4576287879       -7.5518014987  W2        1422            0.0000000000
      4266      1422  TIP3      H2            -17.0291971434       16.7783387879       -9.0220514987  W2        1422            0.0000000000
      4267      1423  TIP3      OH2           -26.5021671434       17.1418687879        3.4779485013  W2        1423            0.0000000000
      4268      1423  TIP3      H1            -26.4318471434       17.7925487879        4.1764485013  W2        1423            0.0000000000
      4269      1423  TIP3      H2            -27.3929471434       17.2446187879        3.1430385013  W2        1423            0.0000000000
      4270      1424  TIP3      OH2           -19.7167071434       23.0444487879       -4.8633814987  W2        1424            0.0000000000
      4271      1424  TIP3      H1            -19.2429471434       23.3400787879       -4.0859614987  W2        1424            0.0000000000
      4272      1424  TIP3      H2            -20.2797771434       23.7826087879       -5.0964214987  W2        1424            0.0000000000
      4273      1425  TIP3      OH2           -25.1825671434       23.0152587879        5.0127585013  W2        1425            0.0000000000
      4274      1425  TIP3      H1            -25.1750371434       22.8792287879        4.0653085013  W2        1425            0.0000000000
      4275      1425  TIP3      H2            -26.0985271434       22.8980687879        5.2647585013  W2        1425            0.0000000000
      4276      1426  TIP3      OH2           -13.7443571434        8.0576387879       -8.4857214987  W2        1426            0.0000000000
      4277      1426  TIP3      H1            -14.6442871434        8.1965387879       -8.1906614987  W2        1426            0.0000000000
      4278      1426  TIP3      H2            -13.4925171434        8.8890987879       -8.8875514987  W2        1426            0.0000000000
      4279      1427  TIP3      OH2           -25.6785071434       16.8453587879       -6.5120314987  W2        1427            0.0000000000
      4280      1427  TIP3      H1            -25.9703771434       17.6135287879       -7.0029014987  W2        1427            0.0000000000
      4281      1427  TIP3      H2            -26.3529871434       16.1859787879       -6.6748914987  W2        1427            0.0000000000
      4282      1428  TIP3      OH2           -12.5552171434       22.4238787879      -10.1093314987  W2        1428            0.0000000000
      4283      1428  TIP3      H1            -12.4818671434       23.3628987879       -9.9388014987  W2        1428            0.0000000000
      4284      1428  TIP3      H2            -11.6497071434       22.1187387879      -10.1656014987  W2        1428            0.0000000000
      4285      1429  TIP3      OH2           -29.5854971434       19.2082787879        2.3029485013  W2        1429            0.0000000000
      4286      1429  TIP3      H1            -30.0866571434       19.1802187879        1.4879185013  W2        1429            0.0000000000
      4287      1429  TIP3      H2            -29.5801271434       18.3025987879        2.6126785013  W2        1429            0.0000000000
      4288      1430  TIP3      OH2           -29.8352271434       21.9886587879       -0.8130314987  W2        1430            0.0000000000
      4289      1430  TIP3      H1            -28.8891671434       21.8443587879       -0.8320814987  W2        1430            0.0000000000
      4290      1430  TIP3      H2            -29.9475971434       22.7729387879       -0.2759114987  W2        1430            0.0000000000
      4291      1431  TIP3      OH2           -11.6373771434       22.6546287879        4.8693385013  W2        1431            0.0000000000
      4292      1431  TIP3      H1            -11.6866971434       21.6994387879        4.8320985013  W2        1431            0.0000000000
      4293      1431  TIP3      H2            -12.4641471434       22.9221587879        5.2707185013  W2        1431            0.0000000000
      4294      1432  TIP3      OH2           -20.6589771434       22.2285487879        3.7454785013  W2        1432            0.0000000000
      4295      1432  TIP3      H1            -20.5715171434       23.0550087879        4.2203885013  W2        1432            0.0000000000
      4296      1432  TIP3      H2            -21.5224671434       21.8989287879        3.9944085013  W2        1432            0.0000000000
      4297      1433  TIP3      OH2           -20.2443971434       26.0009187879       -6.4484614987  W2        1433            0.0000000000
      4298      1433  TIP3      H1            -20.3197971434       25.8796387879       -7.3949414987  W2        1433            0.0000000000
      4299      1433  TIP3      H2            -20.2115271434       26.9501887879       -6.3300014987  W2        1433            0.0000000000
      4300      1434  TIP3      OH2           -26.5910171434       24.7896187879       -4.6675614987  W2        1434            0.0000000000
      4301      1434  TIP3      H1            -26.4389771434       24.4416587879       -3.7889114987  W2        1434            0.0000000000
      4302      1434  TIP3      H2            -27.4419771434       24.4333487879       -4.9228414987  W2        1434            0.0000000000
      4303      1435  TIP3      OH2           -17.1427971434       25.1549387879       -9.4462214987  W2        1435            0.0000000000
      4304      1435  TIP3      H1            -16.7679571434       24.4105487879       -9.9169614987  W2        1435            0.0000000000
      4305      1435  TIP3      H2            -17.1384271434       24.8849987879       -8.5278914987  W2        1435            0.0000000000
      4306      1436  TIP3      OH2           -17.4739871434       25.0806487879       -6.6970014987  W2        1436            0.0000000000
      4307      1436  TIP3      H1            -18.4090071434       25.1808387879       -6.5183014987  W2        1436            0.0000000000
      4308      1436  TIP3      H2            -17.1937971434       24.3712487879       -6.1186814987  W2        1436            0.0000000000
      4309      1437  TIP3      OH2           -14.4853971434       14.1478787879        5.3495585013  W2        1437            0.0000000000
      4310      1437  TIP3      H1            -14.8927171434       14.6284387879        4.6288885013  W2        1437            0.0000000000
      4311      1437  TIP3      H2            -14.4448271434       13.2424787879        5.0416385013  W2        1437            0.0000000000
      4312      1438  TIP3      OH2           -27.3364471434       20.5318187879        3.3462285013  W2        1438            0.0000000000
      4313      1438  TIP3      H1            -27.1203171434       20.1703787879        4.2058085013  W2        1438            0.0000000000
      4314      1438  TIP3      H2            -28.1919771434       20.1571987879        3.1365785013  W2        1438            0.0000000000
      4315      1439  TIP3      OH2           -24.7176471434        9.0018687879       -0.6583514987  W2        1439            0.0000000000
      4316      1439  TIP3      H1            -25.5792771434        8.9146887879       -1.0660614987  W2        1439            0.0000000000
      4317      1439  TIP3      H2            -24.7400771434        9.8578787879       -0.2305914987  W2        1439            0.0000000000
      4318      1440  TIP3      OH2           -20.0548671434        8.7239087879        2.7163485013  W2        1440            0.0000000000
      4319      1440  TIP3      H1            -19.6345571434        8.3086187879        3.4694085013  W2        1440            0.0000000000
      4320      1440  TIP3      H2            -20.9879071434        8.5452387879        2.8335485013  W2        1440            0.0000000000
      4321      1441  TIP3      OH2           -16.7283771434       12.4794287879        3.5697985013  W2        1441            0.0000000000
      4322      1441  TIP3      H1            -17.2424271434       12.3536487879        4.3673985013  W2        1441            0.0000000000
      4323      1441  TIP3      H2            -16.8839071434       13.3917387879        3.3254185013  W2        1441            0.0000000000
      4324      1442  TIP3      OH2           -15.9658871434       17.3404287879      -10.6689014987  W2        1442            0.0000000000
      4325      1442  TIP3      H1            -15.9238071434       17.1178187879      -11.5989014987  W2        1442            0.0000000000
      4326      1442  TIP3      H2            -15.1166771434       17.7391387879      -10.4789114987  W2        1442            0.0000000000
      4327      1443  TIP3      OH2           -20.3931371434       11.2162487879       -9.9985714987  W2        1443            0.0000000000
      4328      1443  TIP3      H1            -20.6466571434       11.2354087879       -9.0757614987  W2        1443            0.0000000000
      4329      1443  TIP3      H2            -20.6499271434       10.3447887879      -10.2999514987  W2        1443            0.0000000000
      4330      1444  TIP3      OH2           -24.6266371434       13.9673187879        0.4366685013  W2        1444            0.0000000000
      4331      1444  TIP3      H1            -25.2684271434       13.9270487879        1.1456785013  W2        1444            0.0000000000
      4332      1444  TIP3      H2            -24.5894371434       14.8937887879        0.1989685013  W2        1444            0.0000000000
      4333      1445  TIP3      OH2           -24.6297271434       14.1883287879       -4.6513314987  W2        1445            0.0000000000
      4334      1445  TIP3      H1            -25.5224371434       13.8479387879       -4.7099514987  W2        1445            0.0000000000
      4335      1445  TIP3      H2            -24.1790671434       13.8114187879       -5.4070114987  W2        1445            0.0000000000
      4336      1446  TIP3      OH2           -19.0941771434       14.6043587879       -5.8342514987  W2        1446            0.0000000000
      4337      1446  TIP3      H1            -19.5031471434       15.4192187879       -6.1257714987  W2        1446            0.0000000000
      4338      1446  TIP3      H2            -18.3735571434       14.4643687879       -6.4485414987  W2        1446            0.0000000000
      4339      1447  TIP3      OH2           -19.9920171434       14.7799987879        5.6538185013  W2        1447            0.0000000000
      4340      1447  TIP3      H1            -20.5546371434       14.0751587879        5.9745985013  W2        1447            0.0000000000
      4341      1447  TIP3      H2            -19.1656771434       14.6591887879        6.1215785013  W2        1447            0.0000000000
      4342      1448  TIP3      OH2           -18.0894071434       14.0503987879       -3.0202814987  W2        1448            0.0000000000
      4343      1448  TIP3      H1            -18.2849571434       14.6560787879       -3.7352214987  W2        1448            0.0000000000
      4344      1448  TIP3      H2            -17.9081471434       13.2169187879       -3.4546514987  W2        1448            0.0000000000
      4345      1449  TIP3      OH2           -26.8765871434       14.2876687879        2.3038685013  W2        1449            0.0000000000
      4346      1449  TIP3      H1            -26.9146471434       14.6878287879        3.1725785013  W2        1449            0.0000000000
      4347      1449  TIP3      H2            -27.3674771434       13.4709087879        2.3941585013  W2        1449            0.0000000000
      4348      1450  TIP3      OH2           -23.5108471434       11.6618987879      -10.8975314987  W2        1450            0.0000000000
      4349      1450  TIP3      H1            -23.9417771434       11.2169087879      -10.1677914987  W2        1450            0.0000000000
      4350      1450  TIP3      H2            -24.2289771434       12.0335287879      -11.4097814987  W2        1450            0.0000000000
      4351      1451  TIP3      OH2           -30.2685071434       11.4038487879       -3.8456614987  W2        1451            0.0000000000
      4352      1451  TIP3      H1            -29.6377371434       11.3750587879       -3.1262714987  W2        1451            0.0000000000
      4353      1451  TIP3      H2            -29.8190771434       10.9787187879       -4.5760714987  W2        1451            0.0000000000
      4354      1452  TIP3      OH2           -28.9942971434       12.1500487879       -8.4216214987  W2        1452            0.0000000000
      4355      1452  TIP3      H1            -28.5201271434       12.7410387879       -9.0065314987  W2        1452            0.0000000000
      4356      1452  TIP3      H2            -29.7116571434       12.6803387879       -8.0746114987  W2        1452            0.0000000000
      4357      1453  TIP3      OH2           -18.8254871434       15.6885287879        1.6509585013  W2        1453            0.0000000000
      4358      1453  TIP3      H1            -18.5020071434       15.0574987879        1.0080085013  W2        1453            0.0000000000
      4359      1453  TIP3      H2            -19.2655571434       15.1537487879        2.3116985013  W2        1453            0.0000000000
      4360      1454  TIP3      OH2           -22.0481971434       11.6160787879       -3.5649214987  W2        1454            0.0000000000
      4361      1454  TIP3      H1            -22.9590871434       11.6727587879       -3.2763214987  W2        1454            0.0000000000
      4362      1454  TIP3      H2            -21.5429071434       11.5556287879       -2.7542014987  W2        1454            0.0000000000
      4363      1455  TIP3      OH2           -27.2198571434       13.2447087879       -4.7381614987  W2        1455            0.0000000000
      4364      1455  TIP3      H1            -28.1090571434       13.3442587879       -5.0782014987  W2        1455            0.0000000000
      4365      1455  TIP3      H2            -26.9233671434       12.4030087879       -5.0843714987  W2        1455            0.0000000000
      4366      1456  TIP3      OH2           -23.5666771434       13.2449687879       -7.0817014987  W2        1456            0.0000000000
      4367      1456  TIP3      H1            -22.6351271434       13.3739687879       -6.9033914987  W2        1456            0.0000000000
      4368      1456  TIP3      H2            -23.7816471434       13.9143987879       -7.7312314987  W2        1456            0.0000000000
      4369      1457  TIP3      OH2           -17.6430071434       10.8507087879       -0.3007414987  W2        1457            0.0000000000
      4370      1457  TIP3      H1            -18.3198471434       10.9820187879        0.3632285013  W2        1457            0.0000000000
      4371      1457  TIP3      H2            -18.1285171434       10.6956587879       -1.1109714987  W2        1457            0.0000000000
      4372      1458  TIP3      OH2           -24.8926571434       14.4391887879       -9.5150914987  W2        1458            0.0000000000
      4373      1458  TIP3      H1            -25.4351471434       14.0595687879      -10.2063314987  W2        1458            0.0000000000
      4374      1458  TIP3      H2            -24.0591671434       14.6336587879       -9.9436814987  W2        1458            0.0000000000
      4375      1459  TIP3      OH2           -14.3554971434       26.5222487879        5.9760185013  W2        1459            0.0000000000
      4376      1459  TIP3      H1            -14.1556271434       26.9464387879        5.1415485013  W2        1459            0.0000000000
      4377      1459  TIP3      H2            -13.7001271434       26.8660687879        6.5830585013  W2        1459            0.0000000000
      4378      1460  TIP3      OH2           -26.7575171434       18.9963787879        5.5840685013  W2        1460            0.0000000000
      4379      1460  TIP3      H1            -26.0252771434       19.2509687879        6.1455185013  W2        1460            0.0000000000
      4380      1460  TIP3      H2            -27.5376471434       19.2009187879        6.0996085013  W2        1460            0.0000000000
      4381      1461  TIP3      OH2           -20.7282271434       14.4033787879       -1.6779614987  W2        1461            0.0000000000
      4382      1461  TIP3      H1            -20.1638871434       13.8570387879       -2.2250014987  W2        1461            0.0000000000
      4383      1461  TIP3      H2            -20.8758871434       13.8815687879       -0.8892014987  W2        1461            0.0000000000
      4384      1462  TIP3      OH2           -25.7262571434       10.5399887879       -5.2594814987  W2        1462            0.0000000000
      4385      1462  TIP3      H1            -26.0433071434        9.6375187879       -5.2949414987  W2        1462            0.0000000000
      4386      1462  TIP3      H2            -24.9448471434       10.5417287879       -5.8123214987  W2        1462            0.0000000000
      4387      1463  TIP3      OH2           -22.1016371434       12.7919887879        0.7360785013  W2        1463            0.0000000000
      4388      1463  TIP3      H1            -22.9371071434       13.2459387879        0.8463185013  W2        1463            0.0000000000
      4389      1463  TIP3      H2            -21.5775771434       13.0678387879        1.4880685013  W2        1463            0.0000000000
      4390      1464  TIP3      OH2           -21.5573771434       19.0047587879       -7.5792814987  W2        1464            0.0000000000
      4391      1464  TIP3      H1            -22.3022771434       18.4972887879       -7.9014914987  W2        1464            0.0000000000
      4392      1464  TIP3      H2            -21.6916571434       19.0535587879       -6.6328014987  W2        1464            0.0000000000
      4393      1465  TIP3      OH2           -14.4074871434       18.1375787879        1.2074785013  W2        1465            0.0000000000
      4394      1465  TIP3      H1            -13.7656071434       18.5942087879        0.6636985013  W2        1465            0.0000000000
      4395      1465  TIP3      H2            -15.2377971434       18.2508187879        0.7448885013  W2        1465            0.0000000000
      4396      1466  TIP3      OH2           -17.6596971434       11.8187487879       -9.3800214987  W2        1466            0.0000000000
      4397      1466  TIP3      H1            -18.5982771434       11.9303087879       -9.5311414987  W2        1466            0.0000000000
      4398      1466  TIP3      H2            -17.3624871434       12.6754387879       -9.0734514987  W2        1466            0.0000000000
      4399      1467  TIP3      OH2           -20.0381671434       19.1890887879        3.6576285013  W2        1467            0.0000000000
      4400      1467  TIP3      H1            -20.3835571434       18.8073287879        4.4645885013  W2        1467            0.0000000000
      4401      1467  TIP3      H2            -20.2381571434       20.1224487879        3.7289185013  W2        1467            0.0000000000
      4402      1468  TIP3      OH2           -16.9413471434       13.6860187879       -7.7192814987  W2        1468            0.0000000000
      4403      1468  TIP3      H1            -16.0494471434       13.5485187879       -7.4001614987  W2        1468            0.0000000000
      4404      1468  TIP3      H2            -16.8849871434       14.4766287879       -8.2559314987  W2        1468            0.0000000000
      4405      1469  TIP3      OH2           -26.4325471434       18.2997587879       -1.8094914987  W2        1469            0.0000000000
      4406      1469  TIP3      H1            -25.6878271434       18.2973287879       -2.4108414987  W2        1469            0.0000000000
      4407      1469  TIP3      H2            -26.3548871434       17.4761387879       -1.3279814987  W2        1469            0.0000000000
      4408      1470  TIP3      OH2           -19.4319671434       20.4631887879       -8.5538214987  W2        1470            0.0000000000
      4409      1470  TIP3      H1            -19.7271271434       21.2899787879       -8.1723414987  W2        1470            0.0000000000
      4410      1470  TIP3      H2            -20.1349671434       19.8438787879       -8.3576814987  W2        1470            0.0000000000
      4411      1471  TIP3      OH2           -29.4245771434       16.7604487879        3.5053585013  W2        1471            0.0000000000
      4412      1471  TIP3      H1            -29.2017171434       16.3424087879        4.3371085013  W2        1471            0.0000000000
      4413      1471  TIP3      H2            -30.0265671434       16.1479487879        3.0826385013  W2        1471            0.0000000000
      4414      1472  TIP3      OH2           -22.4080871434       16.2774387879        5.7183285013  W2        1472            0.0000000000
      4415      1472  TIP3      H1            -22.7040071434       16.1117387879        4.8232385013  W2        1472            0.0000000000
      4416      1472  TIP3      H2            -21.4765671434       16.0574687879        5.7077185013  W2        1472            0.0000000000
      4417      1473  TIP3      OH2           -17.7878071434       21.6506387879        3.6081285013  W2        1473            0.0000000000
      4418      1473  TIP3      H1            -18.6883771434       21.8338987879        3.3405185013  W2        1473            0.0000000000
      4419      1473  TIP3      H2            -17.7536971434       21.9095687879        4.5290085013  W2        1473            0.0000000000
      4420      1474  TIP3      OH2           -12.0564771434       13.8954287879       -8.0246114987  W2        1474            0.0000000000
      4421      1474  TIP3      H1            -12.6108471434       13.4992287879       -8.6968614987  W2        1474            0.0000000000
      4422      1474  TIP3      H2            -11.9561171434       14.8059487879       -8.3022814987  W2        1474            0.0000000000
      4423      1475  TIP3      OH2           -12.0932771434       19.6955987879        4.8125385013  W2        1475            0.0000000000
      4424      1475  TIP3      H1            -12.9444271434       19.9339787879        4.4451785013  W2        1475            0.0000000000
      4425      1475  TIP3      H2            -11.5029371434       19.6789187879        4.0592485013  W2        1475            0.0000000000
      4426      1476  TIP3      OH2           -13.7613071434       22.6814687879       -7.5594014987  W2        1476            0.0000000000
      4427      1476  TIP3      H1            -14.1341971434       21.8558487879       -7.2503414987  W2        1476            0.0000000000
      4428      1476  TIP3      H2            -13.4839571434       22.4984087879       -8.4570614987  W2        1476            0.0000000000
      4429      1477  TIP3      OH2           -16.6009171434       17.4894187879       -0.5382114987  W2        1477            0.0000000000
      4430      1477  TIP3      H1            -17.5292271434       17.2576087879       -0.5652814987  W2        1477            0.0000000000
      4431      1477  TIP3      H2            -16.1498071434       16.7123987879       -0.8683314987  W2        1477            0.0000000000
      4432      1478  TIP3      OH2           -24.0576071434       21.8175787879       -4.4053414987  W2        1478            0.0000000000
      4433      1478  TIP3      H1            -23.5303871434       22.5910187879       -4.6054614987  W2        1478            0.0000000000
      4434      1478  TIP3      H2            -24.9377571434       22.0424987879       -4.7069414987  W2        1478            0.0000000000
      4435      1479  TIP3      OH2           -28.3028371434       16.6799887879       -9.8181014987  W2        1479            0.0000000000
      4436      1479  TIP3      H1            -27.6868471434       17.3067087879       -9.4386214987  W2        1479            0.0000000000
      4437      1479  TIP3      H2            -29.1645771434       16.9959687879       -9.5464514987  W2        1479            0.0000000000
      4438      1480  TIP3      OH2           -22.6303771434       19.4805687879       -4.8289114987  W2        1480            0.0000000000
      4439      1480  TIP3      H1            -22.8713771434       20.4060087879       -4.7873814987  W2        1480            0.0000000000
      4440      1480  TIP3      H2            -23.3710171434       19.0216987879       -4.4325214987  W2        1480            0.0000000000
      4441      1481  TIP3      OH2           -22.1157171434       23.6299287879        1.4861985013  W2        1481            0.0000000000
      4442      1481  TIP3      H1            -21.7532471434       24.4844887879        1.2526385013  W2        1481            0.0000000000
      4443      1481  TIP3      H2            -21.5841971434       23.3380887879        2.2268285013  W2        1481            0.0000000000
      4444      1482  TIP3      OH2           -23.9472971434       24.5023287879       -5.2836914987  W2        1482            0.0000000000
      4445      1482  TIP3      H1            -24.8972471434       24.6080687879       -5.2323614987  W2        1482            0.0000000000
      4446      1482  TIP3      H2            -23.5954871434       25.3230687879       -4.9389414987  W2        1482            0.0000000000
      4447      1483  TIP3      OH2           -18.5716371434       19.7289987879        1.1867585013  W2        1483            0.0000000000
      4448      1483  TIP3      H1            -18.9975071434       19.5011687879        2.0131585013  W2        1483            0.0000000000
      4449      1483  TIP3      H2            -17.9910571434       18.9901787879        1.0042885013  W2        1483            0.0000000000
      4450      1484  TIP3      OH2           -16.3687471434       20.6580487879       -9.7393414987  W2        1484            0.0000000000
      4451      1484  TIP3      H1            -16.0154371434       20.2780287879       -8.9349914987  W2        1484            0.0000000000
      4452      1484  TIP3      H2            -17.3173971434       20.5645287879       -9.6524114987  W2        1484            0.0000000000
      4453      1485  TIP3      OH2           -15.9132171434       24.2809487879        3.6562385013  W2        1485            0.0000000000
      4454      1485  TIP3      H1            -16.5148971434       23.7252387879        3.1608685013  W2        1485            0.0000000000
      4455      1485  TIP3      H2            -15.6318471434       24.9479287879        3.0299785013  W2        1485            0.0000000000
      4456      1486  TIP3      OH2           -11.8653071434       25.1372987879       -9.5383214987  W2        1486            0.0000000000
      4457      1486  TIP3      H1            -11.1215171434       25.7233487879       -9.6781614987  W2        1486            0.0000000000
      4458      1486  TIP3      H2            -12.5594971434       25.7058787879       -9.2050814987  W2        1486            0.0000000000
      4459      1487  TIP3      OH2           -27.7906271434       11.5137187879        3.0634985013  W2        1487            0.0000000000
      4460      1487  TIP3      H1            -28.6833971434       11.8522587879        2.9958985013  W2        1487            0.0000000000
      4461      1487  TIP3      H2            -27.8893471434       10.6583287879        3.4815785013  W2        1487            0.0000000000
      4462      1488  TIP3      OH2           -15.5028171434       19.3302487879       -7.5125514987  W2        1488            0.0000000000
      4463      1488  TIP3      H1            -15.7800571434       18.6021787879       -6.9564414987  W2        1488            0.0000000000
      4464      1488  TIP3      H2            -14.5755171434       19.4494487879       -7.3072914987  W2        1488            0.0000000000
      4465      1489  TIP3      OH2           -28.1394271434       23.3181587879        1.4984385013  W2        1489            0.0000000000
      4466      1489  TIP3      H1            -27.9223971434       22.3863987879        1.4674085013  W2        1489            0.0000000000
      4467      1489  TIP3      H2            -27.8930771434       23.5926587879        2.3817185013  W2        1489            0.0000000000
      4468      1490  TIP3      OH2           -22.2779671434       21.7696587879      -11.2923414987  W2        1490            0.0000000000
      4469      1490  TIP3      H1            -22.0389871434       21.0214687879      -11.8394514987  W2        1490            0.0000000000
      4470      1490  TIP3      H2            -22.5468371434       21.3818287879      -10.4595614987  W2        1490            0.0000000000
      4471      1491  TIP3      OH2           -23.3409071434       21.3400387879       -8.8360814987  W2        1491            0.0000000000
      4472      1491  TIP3      H1            -23.1941071434       20.8200187879       -8.0459914987  W2        1491            0.0000000000
      4473      1491  TIP3      H2            -23.3437371434       22.2467987879       -8.5294914987  W2        1491            0.0000000000
      4474      1492  TIP3      OH2           -26.8877971434       18.5923687879       -8.3255414987  W2        1492            0.0000000000
      4475      1492  TIP3      H1            -27.5738671434       18.9446187879       -7.7585714987  W2        1492            0.0000000000
      4476      1492  TIP3      H2            -26.3650071434       19.3553287879       -8.5721114987  W2        1492            0.0000000000
      4477      1493  TIP3      OH2           -19.0562871434       11.2547487879        1.9533585013  W2        1493            0.0000000000
      4478      1493  TIP3      H1            -18.3574971434       11.3286187879        2.6033285013  W2        1493            0.0000000000
      4479      1493  TIP3      H2            -19.4371471434       10.3902487879        2.1076485013  W2        1493            0.0000000000
      4480      1494  TIP3      OH2           -18.2717971434       10.9069187879       -6.9494114987  W2        1494            0.0000000000
      4481      1494  TIP3      H1            -18.0519671434       11.3784587879       -7.7528714987  W2        1494            0.0000000000
      4482      1494  TIP3      H2            -17.7133971434       11.3011787879       -6.2793514987  W2        1494            0.0000000000
      4483      1495  TIP3      OH2           -20.6031871434       23.0373987879       -8.0866614987  W2        1495            0.0000000000
      4484      1495  TIP3      H1            -21.4195771434       23.5343687879       -8.0342314987  W2        1495            0.0000000000
      4485      1495  TIP3      H2            -20.0735571434       23.5127487879       -8.7267814987  W2        1495            0.0000000000
      4486      1496  TIP3      OH2           -21.0718071434       12.6347987879       -6.1145714987  W2        1496            0.0000000000
      4487      1496  TIP3      H1            -20.2595471434       13.1391187879       -6.0684014987  W2        1496            0.0000000000
      4488      1496  TIP3      H2            -21.3165071434       12.4897687879       -5.2006114987  W2        1496            0.0000000000
      4489      1497  TIP3      OH2           -20.5361671434       13.6210687879        3.0700885013  W2        1497            0.0000000000
      4490      1497  TIP3      H1            -20.4171371434       14.1946087879        3.8271285013  W2        1497            0.0000000000
      4491      1497  TIP3      H2            -19.8807071434       12.9330087879        3.1848685013  W2        1497            0.0000000000
      4492      1498  TIP3      OH2           -20.1881371434        9.7160987879       -5.1764614987  W2        1498            0.0000000000
      4493      1498  TIP3      H1            -20.5347871434       10.3331587879       -4.5320314987  W2        1498            0.0000000000
      4494      1498  TIP3      H2            -19.5294471434       10.2166687879       -5.6579114987  W2        1498            0.0000000000
      4495      1499  TIP3      OH2           -23.2648771434       24.0811187879       -8.1049714987  W2        1499            0.0000000000
      4496      1499  TIP3      H1            -23.1040071434       24.8808687879       -8.6057114987  W2        1499            0.0000000000
      4497      1499  TIP3      H2            -23.4620971434       24.3877187879       -7.2199114987  W2        1499            0.0000000000
      4498      1500  TIP3      OH2           -24.5304371434       10.7790387879       -8.4892114987  W2        1500            0.0000000000
      4499      1500  TIP3      H1            -24.6139571434       11.6673487879       -8.1425714987  W2        1500            0.0000000000
      4500      1500  TIP3      H2            -23.6404071434       10.5137087879       -8.2575314987  W2        1500            0.0000000000
      4501      1501  TIP3      OH2           -14.3315871434       11.5280987879        3.9050585013  W2        1501            0.0000000000
      4502      1501  TIP3      H1            -15.2480071434       11.7902687879        3.8174285013  W2        1501            0.0000000000
      4503      1501  TIP3      H2            -13.9960871434       11.5249987879        3.0085885013  W2        1501            0.0000000000
      4504      1502  TIP3      OH2           -15.7294871434       15.2781987879       -1.9992114987  W2        1502            0.0000000000
      4505      1502  TIP3      H1            -16.5270471434       14.8632187879       -2.3277114987  W2        1502            0.0000000000
      4506      1502  TIP3      H2            -15.2843771434       14.5875687879       -1.5081614987  W2        1502            0.0000000000
      4507      1503  TIP3      OH2           -26.2719071434       21.2062587879       -9.4287614987  W2        1503            0.0000000000
      4508      1503  TIP3      H1            -25.6797571434       21.9057387879       -9.1525214987  W2        1503            0.0000000000
      4509      1503  TIP3      H2            -25.8126071434       20.7732087879      -10.1483014987  W2        1503            0.0000000000
      4510      1504  TIP3      OH2           -27.9559871434       13.8705587879      -10.3128214987  W2        1504            0.0000000000
      4511      1504  TIP3      H1            -28.0007271434       14.8098687879      -10.1341214987  W2        1504            0.0000000000
      4512      1504  TIP3      H2            -28.8436671434       13.6350487879      -10.5826114987  W2        1504            0.0000000000
      4513      1505  TIP3      OH2           -14.6430271434       24.5344487879       -0.3768614987  W2        1505            0.0000000000
      4514      1505  TIP3      H1            -14.7985971434       25.2128887879       -1.0339314987  W2        1505            0.0000000000
      4515      1505  TIP3      H2            -13.7103871434       24.6063787879       -0.1738014987  W2        1505            0.0000000000
      4516      1506  TIP3      OH2           -27.1477871434        8.6522187879       -1.6397214987  W2        1506            0.0000000000
      4517      1506  TIP3      H1            -27.3768071434        8.7114687879       -2.5672214987  W2        1506            0.0000000000
      4518      1506  TIP3      H2            -27.5904471434        7.8607687879       -1.3333114987  W2        1506            0.0000000000
      4519      1507  TIP3      OH2           -28.2174571434       22.5929287879       -5.4791414987  W2        1507            0.0000000000
      4520      1507  TIP3      H1            -29.0495971434       23.0651987879       -5.4520014987  W2        1507            0.0000000000
      4521      1507  TIP3      H2            -27.6716271434       23.1026887879       -6.0778314987  W2        1507            0.0000000000
      4522      1508  TIP3      OH2           -28.9290871434       25.2052987879        5.8506585013  W2        1508            0.0000000000
      4523      1508  TIP3      H1            -28.3888671434       24.9886987879        6.6105785013  W2        1508            0.0000000000
      4524      1508  TIP3      H2            -29.4102871434       24.3998987879        5.6609085013  W2        1508            0.0000000000
      4525      1509  TIP3      OH2           -24.3317471434       24.1247387879        7.4710785013  W2        1509            0.0000000000
      4526      1509  TIP3      H1            -23.5640271434       23.6658187879        7.8119985013  W2        1509            0.0000000000
      4527      1509  TIP3      H2            -24.3531271434       23.8987187879        6.5411985013  W2        1509            0.0000000000
      4528      1510  TIP3      OH2           -20.2397871434       23.6327987879      -11.1537414987  W2        1510            0.0000000000
      4529      1510  TIP3      H1            -20.8836871434       23.0016587879      -10.8323714987  W2        1510            0.0000000000
      4530      1510  TIP3      H2            -19.4779571434       23.1015987879      -11.3853914987  W2        1510            0.0000000000
      4531      1511  TIP3      OH2           -17.7548771434       22.5048487879        6.2002285013  W2        1511            0.0000000000
      4532      1511  TIP3      H1            -18.1059271434       21.6481487879        6.4432685013  W2        1511            0.0000000000
      4533      1511  TIP3      H2            -17.0285571434       22.6475187879        6.8071285013  W2        1511            0.0000000000
      4534      1512  TIP3      OH2           -15.6354971434       23.4497887879      -10.9199414987  W2        1512            0.0000000000
      4535      1512  TIP3      H1            -15.3524571434       22.6553087879      -10.4672514987  W2        1512            0.0000000000
      4536      1512  TIP3      H2            -14.8957071434       23.6828887879      -11.4808314987  W2        1512            0.0000000000
      4537      1513  TIP3      OH2           -29.0221371434       19.0157087879        6.8050885013  W2        1513            0.0000000000
      4538      1513  TIP3      H1            -28.8780871434       18.1137787879        6.5187585013  W2        1513            0.0000000000
      4539      1513  TIP3      H2            -29.7943971434       19.3019187879        6.3173185013  W2        1513            0.0000000000
      4540      1514  TIP3      OH2           -24.6807671434       19.3592787879      -11.0624514987  W2        1514            0.0000000000
      4541      1514  TIP3      H1            -24.6163571434       18.5652387879      -10.5318114987  W2        1514            0.0000000000
      4542      1514  TIP3      H2            -24.0278471434       19.2405587879      -11.7522514987  W2        1514            0.0000000000
      4543      1515  TIP3      OH2           -22.3665271434       18.9855187879        6.2377285013  W2        1515            0.0000000000
      4544      1515  TIP3      H1            -22.6951471434       19.2563287879        5.3804685013  W2        1515            0.0000000000
      4545      1515  TIP3      H2            -22.2147071434       18.0444987879        6.1502285013  W2        1515            0.0000000000
      4546      1516  TIP3      OH2           -19.3284271434       20.4064487879      -11.3266514987  W2        1516            0.0000000000
      4547      1516  TIP3      H1            -19.5970171434       20.5866587879      -10.4257614987  W2        1516            0.0000000000
      4548      1516  TIP3      H2            -19.5348671434       19.4810687879      -11.4580714987  W2        1516            0.0000000000
      4549      1517  TIP3      OH2           -16.6320071434       18.9012487879        3.6209585013  W2        1517            0.0000000000
      4550      1517  TIP3      H1            -15.8865271434       19.4896187879        3.5013585013  W2        1517            0.0000000000
      4551      1517  TIP3      H2            -17.3893271434       19.4832187879        3.6842685013  W2        1517            0.0000000000
      4552      1518  TIP3      OH2           -28.1894871434       16.2160387879        6.2250185013  W2        1518            0.0000000000
      4553      1518  TIP3      H1            -27.7813671434       15.3586987879        6.1040785013  W2        1518            0.0000000000
      4554      1518  TIP3      H2            -28.4497271434       16.2301687879        7.1460485013  W2        1518            0.0000000000
      4555      1519  TIP3      OH2           -23.5313871434       17.3318987879       -8.7566514987  W2        1519            0.0000000000
      4556      1519  TIP3      H1            -23.9911871434       16.8477287879       -8.0708014987  W2        1519            0.0000000000
      4557      1519  TIP3      H2            -23.2765171434       16.6634387879       -9.3926014987  W2        1519            0.0000000000
      4558      1520  TIP3      OH2           -24.2424571434       15.2246087879        3.5993085013  W2        1520            0.0000000000
      4559      1520  TIP3      H1            -24.8608471434       15.8992687879        3.8797785013  W2        1520            0.0000000000
      4560      1520  TIP3      H2            -23.8983371434       15.5459987879        2.7659285013  W2        1520            0.0000000000
      4561      1521  TIP3      OH2           -22.4603471434       15.5750787879      -10.4943314987  W2        1521            0.0000000000
      4562      1521  TIP3      H1            -22.6408471434       15.4201987879      -11.4215014987  W2        1521            0.0000000000
      4563      1521  TIP3      H2            -21.5102971434       15.6829487879      -10.4495414987  W2        1521            0.0000000000
      4564      1522  TIP3      OH2           -19.2226371434       17.6961387879        6.8767885013  W2        1522            0.0000000000
      4565      1522  TIP3      H1            -18.2695171434       17.7800487879        6.8493885013  W2        1522            0.0000000000
      4566      1522  TIP3      H2            -19.3831771434       16.9843187879        7.4962785013  W2        1522            0.0000000000
      4567      1523  TIP3      OH2           -13.0705171434       17.9294987879      -11.0485214987  W2        1523            0.0000000000
      4568      1523  TIP3      H1            -13.3440371434       17.5050487879      -11.8616914987  W2        1523            0.0000000000
      4569      1523  TIP3      H2            -13.0311071434       18.8609487879      -11.2654814987  W2        1523            0.0000000000
      4570      1524  TIP3      OH2           -23.9030871434       12.5796887879        4.6816185013  W2        1524            0.0000000000
      4571      1524  TIP3      H1            -23.7529971434       11.8508187879        4.0795885013  W2        1524            0.0000000000
      4572      1524  TIP3      H2            -23.9008471434       13.3568587879        4.1228385013  W2        1524            0.0000000000
      4573      1525  TIP3      OH2           -23.4905171434       10.9492687879        2.1743585013  W2        1525            0.0000000000
      4574      1525  TIP3      H1            -22.9547671434       11.4009387879        1.5222885013  W2        1525            0.0000000000
      4575      1525  TIP3      H2            -24.3425571434       10.8412487879        1.7517685013  W2        1525            0.0000000000
      4576      1526  TIP3      OH2           -21.9086771434       16.3888887879        2.4138785013  W2        1526            0.0000000000
      4577      1526  TIP3      H1            -21.1581971434       16.2326387879        1.8406585013  W2        1526            0.0000000000
      4578      1526  TIP3      H2            -22.2478471434       17.2405487879        2.1384285013  W2        1526            0.0000000000
      4579      1527  TIP3      OH2           -17.4930571434       14.2040687879        7.4424085013  W2        1527            0.0000000000
      4580      1527  TIP3      H1            -17.3009271434       13.2730087879        7.3308585013  W2        1527            0.0000000000
      4581      1527  TIP3      H2            -16.6354271434       14.6290187879        7.4319485013  W2        1527            0.0000000000
      4582      1528  TIP3      OH2           -16.1763371434       16.9925887879        5.5196785013  W2        1528            0.0000000000
      4583      1528  TIP3      H1            -16.4578371434       17.7020487879        4.9420585013  W2        1528            0.0000000000
      4584      1528  TIP3      H2            -15.2339071434       16.9198887879        5.3687985013  W2        1528            0.0000000000
      4585      1529  TIP3      OH2           -25.4244571434       13.7780387879        6.5931785013  W2        1529            0.0000000000
      4586      1529  TIP3      H1            -26.1915571434       13.2455187879        6.3829385013  W2        1529            0.0000000000
      4587      1529  TIP3      H2            -24.7455571434       13.4680787879        5.9938085013  W2        1529            0.0000000000
      4588      1530  TIP3      OH2           -22.6849671434        8.4058387879        2.6057185013  W2        1530            0.0000000000
      4589      1530  TIP3      H1            -22.7830071434        9.3521587879        2.5003385013  W2        1530            0.0000000000
      4590      1530  TIP3      H2            -23.4273471434        8.0332187879        2.1300685013  W2        1530            0.0000000000
      4591      1531  TIP3      OH2           -21.4209171434       12.7273787879        6.1695585013  W2        1531            0.0000000000
      4592      1531  TIP3      H1            -21.6563771434       12.5080487879        7.0710485013  W2        1531            0.0000000000
      4593      1531  TIP3      H2            -22.2042271434       12.5204987879        5.6598085013  W2        1531            0.0000000000
      4594      1532  TIP3      OH2           -18.7052571434       11.8547287879        5.2449085013  W2        1532            0.0000000000
      4595      1532  TIP3      H1            -19.6527171434       11.8866987879        5.3772385013  W2        1532            0.0000000000
      4596      1532  TIP3      H2            -18.3925871434       11.2294387879        5.8987285013  W2        1532            0.0000000000
      4597      1533  TIP3      OH2           -17.0711071434       10.4888387879        7.2500985013  W2        1533            0.0000000000
      4598      1533  TIP3      H1            -17.1679271434        9.5365687879        7.2442885013  W2        1533            0.0000000000
      4599      1533  TIP3      H2            -17.3927971434       10.7575187879        8.1106485013  W2        1533            0.0000000000
      4600      1534  TIP3      OH2           -27.2441771434       11.6984187879        6.2976485013  W2        1534            0.0000000000
      4601      1534  TIP3      H1            -27.0324371434       10.9920287879        5.6873985013  W2        1534            0.0000000000
      4602      1534  TIP3      H2            -27.3554271434       11.2610187879        7.1417685013  W2        1534            0.0000000000
      4603      1535  TIP3      OH2           -22.4631571434        7.6995787879        5.2769985013  W2        1535            0.0000000000
      4604      1535  TIP3      H1            -21.7513171434        7.0597987879        5.2629085013  W2        1535            0.0000000000
      4605      1535  TIP3      H2            -22.5641171434        7.9664087879        4.3633085013  W2        1535            0.0000000000
      4606      1536  TIP3      OH2           -22.1094071434        9.3824187879        7.3306285013  W2        1536            0.0000000000
      4607      1536  TIP3      H1            -22.2411871434        8.9067987879        6.5104785013  W2        1536            0.0000000000
      4608      1536  TIP3      H2            -22.7086671434       10.1267787879        7.2753385013  W2        1536            0.0000000000
      4609      1537  TIP3      OH2           -22.5631771434       26.2654487879       -9.4929714987  W2        1537            0.0000000000
      4610      1537  TIP3      H1            -21.6301071434       26.4233187879       -9.3491314987  W2        1537            0.0000000000
      4611      1537  TIP3      H2            -22.8272971434       26.9407487879      -10.1178214987  W2        1537            0.0000000000
      4612      1538  TIP3      OH2           -28.9946871434       20.9018287879      -10.0101614987  W2        1538            0.0000000000
      4613      1538  TIP3      H1            -28.0807671434       20.9807187879       -9.7367714987  W2        1538            0.0000000000
      4614      1538  TIP3      H2            -28.9873771434       20.2147887879      -10.6766014987  W2        1538            0.0000000000
      4615      1539  TIP3      OH2           -30.3456271434       26.2946787879       -4.9327714987  W2        1539            0.0000000000
      4616      1539  TIP3      H1            -30.9929171434       25.8328487879       -5.4656514987  W2        1539            0.0000000000
      4617      1539  TIP3      H2            -29.9911671434       25.6230087879       -4.3501514987  W2        1539            0.0000000000
      4618      1540  TIP3      OH2           -29.4757071434       24.3753787879       -3.1281514987  W2        1540            0.0000000000
      4619      1540  TIP3      H1            -29.8100271434       23.4951087879       -2.9561314987  W2        1540            0.0000000000
      4620      1540  TIP3      H2            -29.2534671434       24.7208787879       -2.2635914987  W2        1540            0.0000000000
      4621      1541  TIP3      OH2           -11.9272271434       25.1850187879       -0.1476714987  W2        1541            0.0000000000
      4622      1541  TIP3      H1            -11.9485571434       25.3698587879        0.7912685013  W2        1541            0.0000000000
      4623      1541  TIP3      H2            -11.2366071434       25.7534187879       -0.4885314987  W2        1541            0.0000000000
      4624      1542  TIP3      OH2           -12.3639371434       24.7521287879        2.7742385013  W2        1542            0.0000000000
      4625      1542  TIP3      H1            -12.8510671434       24.0165387879        2.4029785013  W2        1542            0.0000000000
      4626      1542  TIP3      H2            -11.8146671434       24.3585187879        3.4521785013  W2        1542            0.0000000000
      4627      1543  TIP3      OH2           -13.9132071434       20.5419387879        7.4122685013  W2        1543            0.0000000000
      4628      1543  TIP3      H1            -14.7790971434       20.4369087879        7.8064985013  W2        1543            0.0000000000
      4629      1543  TIP3      H2            -13.5366171434       21.3002687879        7.8587385013  W2        1543            0.0000000000
      4630      1544  TIP3      OH2           -12.6122371434       18.7983087879       -7.0734814987  W2        1544            0.0000000000
      4631      1544  TIP3      H1            -11.7620971434       19.2193987879       -6.9463214987  W2        1544            0.0000000000
      4632      1544  TIP3      H2            -12.6067271434       18.0583187879       -6.4663414987  W2        1544            0.0000000000
      4633      1545  TIP3      OH2           -12.2176771434       16.8520487879       -5.2499114987  W2        1545            0.0000000000
      4634      1545  TIP3      H1            -12.9442171434       16.3723087879       -4.8521514987  W2        1545            0.0000000000
      4635      1545  TIP3      H2            -11.6363471434       17.0575187879       -4.5177514987  W2        1545            0.0000000000
      4636      1546  TIP3      OH2           -12.4585571434       19.6367987879       -0.3021514987  W2        1546            0.0000000000
      4637      1546  TIP3      H1            -11.6251371434       19.2587987879       -0.5827914987  W2        1546            0.0000000000
      4638      1546  TIP3      H2            -12.3465271434       20.5799187879       -0.4212414987  W2        1546            0.0000000000
      4639      1547  TIP3      OH2           -13.9723271434       22.5145487879        2.0046885013  W2        1547            0.0000000000
      4640      1547  TIP3      H1            -14.6197971434       22.8396987879        2.6302085013  W2        1547            0.0000000000
      4641      1547  TIP3      H2            -14.4899271434       22.0743187879        1.3305185013  W2        1547            0.0000000000
      4642      1548  TIP3      OH2           -11.9493671434       16.7528987879       -8.8587814987  W2        1548            0.0000000000
      4643      1548  TIP3      H1            -12.4712571434       17.1093087879       -9.5776914987  W2        1548            0.0000000000
      4644      1548  TIP3      H2            -11.9824471434       17.4276787879       -8.1806914987  W2        1548            0.0000000000
      4645      1549  TIP3      OH2           -13.6004671434       13.9924587879      -10.3080714987  W2        1549            0.0000000000
      4646      1549  TIP3      H1            -13.5040271434       14.6591587879      -10.9881014987  W2        1549            0.0000000000
      4647      1549  TIP3      H2            -13.7405071434       13.1770887879      -10.7895214987  W2        1549            0.0000000000
      4648      1550  TIP3      OH2           -14.4309971434       15.3726987879       -4.6870414987  W2        1550            0.0000000000
      4649      1550  TIP3      H1            -14.5811171434       14.4275587879       -4.7072614987  W2        1550            0.0000000000
      4650      1550  TIP3      H2            -14.7845471434       15.6538387879       -3.8431314987  W2        1550            0.0000000000
      4651      1551  TIP3      OH2           -29.3957571434       17.4509187879       -0.6766614987  W2        1551            0.0000000000
      4652      1551  TIP3      H1            -29.2114671434       17.3690887879       -1.6123714987  W2        1551            0.0000000000
      4653      1551  TIP3      H2            -28.5464671434       17.3266187879       -0.2530214987  W2        1551            0.0000000000
      4654      1552  TIP3      OH2           -13.5747071434       17.3430287879        4.9517885013  W2        1552            0.0000000000
      4655      1552  TIP3      H1            -12.9919771434       16.6082587879        5.1435085013  W2        1552            0.0000000000
      4656      1552  TIP3      H2            -13.0107771434       18.1150587879        4.9983685013  W2        1552            0.0000000000
      4657      1553  TIP3      OH2           -12.0779971434       15.2456087879        5.6363285013  W2        1553            0.0000000000
      4658      1553  TIP3      H1            -12.9413271434       14.8668187879        5.4707985013  W2        1553            0.0000000000
      4659      1553  TIP3      H2            -11.4736271434       14.5070887879        5.5619085013  W2        1553            0.0000000000
      4660      1554  TIP3      OH2           -14.3530871434       11.4004387879      -11.1905214987  W2        1554            0.0000000000
      4661      1554  TIP3      H1            -13.7425071434       11.0291187879      -10.5537014987  W2        1554            0.0000000000
      4662      1554  TIP3      H2            -15.1899371434       10.9791287879      -10.9945214987  W2        1554            0.0000000000
      4663      1555  TIP3      OH2           -14.7205171434       12.9552787879       -6.2245314987  W2        1555            0.0000000000
      4664      1555  TIP3      H1            -14.4408071434       12.0483187879       -6.1003614987  W2        1555            0.0000000000
      4665      1555  TIP3      H2            -13.9613471434       13.3894287879       -6.6136114987  W2        1555            0.0000000000
      4666      1556  TIP3      OH2           -14.1086871434       13.5370187879       -0.7886414987  W2        1556            0.0000000000
      4667      1556  TIP3      H1            -13.1758871434       13.7490087879       -0.8230414987  W2        1556            0.0000000000
      4668      1556  TIP3      H2            -14.3439371434       13.6382287879        0.1336585013  W2        1556            0.0000000000
      4669      1557  TIP3      OH2           -14.0794971434       14.2735487879        1.9872985013  W2        1557            0.0000000000
      4670      1557  TIP3      H1            -14.9223671434       14.5415887879        2.3532785013  W2        1557            0.0000000000
      4671      1557  TIP3      H2            -13.6370671434       15.0957387879        1.7764085013  W2        1557            0.0000000000
      4672      1558  TIP3      OH2           -29.7982771434       12.7214187879        5.4642185013  W2        1558            0.0000000000
      4673      1558  TIP3      H1            -28.8787871434       12.5992487879        5.7005285013  W2        1558            0.0000000000
      4674      1558  TIP3      H2            -30.2478271434       11.9713887879        5.8535685013  W2        1558            0.0000000000
      4675      1559  TIP3      OH2           -11.7963371434        8.2535687879        7.3407985013  W2        1559            0.0000000000
      4676      1559  TIP3      H1            -11.4466371434        7.5999187879        6.7352685013  W2        1559            0.0000000000
      4677      1559  TIP3      H2            -11.6493871434        9.0909787879        6.9010585013  W2        1559            0.0000000000
      4678      1560  TIP3      OH2           -14.1070371434       10.2182087879       -6.1763314987  W2        1560            0.0000000000
      4679      1560  TIP3      H1            -13.9245371434        9.7693587879       -5.3508314987  W2        1560            0.0000000000
      4680      1560  TIP3      H2            -14.7067471434        9.6336487879       -6.6398714987  W2        1560            0.0000000000
      4681      1561  TIP3      OH2           -28.5770271434       11.0335787879       -1.6444914987  W2        1561            0.0000000000
      4682      1561  TIP3      H1            -28.1318671434       10.2418287879       -1.3425214987  W2        1561            0.0000000000
      4683      1561  TIP3      H2            -28.1107271434       11.7500987879       -1.2139314987  W2        1561            0.0000000000
      4684      1562  TIP3      OH2           -30.2729971434       14.0328787879       -0.5754714987  W2        1562            0.0000000000
      4685      1562  TIP3      H1            -29.7810171434       13.8119287879       -1.3662714987  W2        1562            0.0000000000
      4686      1562  TIP3      H2            -29.9109071434       14.8732187879       -0.2945214987  W2        1562            0.0000000000
      4687      1563  TIP3      OH2           -12.2766171434       10.3630287879        5.6899285013  W2        1563            0.0000000000
      4688      1563  TIP3      H1            -13.1940471434       10.6337387879        5.6542785013  W2        1563            0.0000000000
      4689      1563  TIP3      H2            -12.1536771434        9.8278687879        4.9058985013  W2        1563            0.0000000000
      4690      1564  TIP3      OH2           -12.2404171434       10.2860187879       -9.6483014987  W2        1564            0.0000000000
      4691      1564  TIP3      H1            -11.8281571434        9.5645887879      -10.1235014987  W2        1564            0.0000000000
      4692      1564  TIP3      H2            -11.5587671434       10.9554787879       -9.5898714987  W2        1564            0.0000000000
      4693      1565  TIP3      OH2           -29.9593471434       10.2907887879       -6.5212314987  W2        1565            0.0000000000
      4694      1565  TIP3      H1            -30.8845071434       10.4994487879       -6.6506814987  W2        1565            0.0000000000
      4695      1565  TIP3      H2            -29.5053571434       10.7748687879       -7.2110014987  W2        1565            0.0000000000
      4696      1566  TIP3      OH2           -15.1886271434       25.2749587879       -4.5754914987  W2        1566            0.0000000000
      4697      1566  TIP3      H1            -14.5363371434       24.9271687879       -5.1835814987  W2        1566            0.0000000000
      4698      1566  TIP3      H2            -14.6782471434       25.7632787879       -3.9295214987  W2        1566            0.0000000000
      4699      1567  TIP3      OH2           -29.9958071434        9.0286887879        1.8230185013  W2        1567            0.0000000000
      4700      1567  TIP3      H1            -30.6607571434        8.7827187879        2.4661085013  W2        1567            0.0000000000
      4701      1567  TIP3      H2            -30.4386771434        9.6507287879        1.2458185013  W2        1567            0.0000000000
      4702      1568  TIP3      OH2           -27.8038771434       22.2040987879        5.9675985013  W2        1568            0.0000000000
      4703      1568  TIP3      H1            -28.6246271434       22.3787487879        5.5070685013  W2        1568            0.0000000000
      4704      1568  TIP3      H2            -28.0560971434       22.1305687879        6.8880385013  W2        1568            0.0000000000
      4705      1569  TIP3      OH2           -24.8495871434       23.1782187879        2.2259985013  W2        1569            0.0000000000
      4706      1569  TIP3      H1            -25.2744771434       23.9880687879        1.9434585013  W2        1569            0.0000000000
      4707      1569  TIP3      H2            -23.9453071434       23.2636287879        1.9239785013  W2        1569            0.0000000000
      4708      1570  TIP3      OH2           -20.5384471434       24.5772187879        5.1853685013  W2        1570            0.0000000000
      4709      1570  TIP3      H1            -20.3536971434       24.2438287879        6.0633985013  W2        1570            0.0000000000
      4710      1570  TIP3      H2            -19.6919971434       24.8870787879        4.8632885013  W2        1570            0.0000000000
      4711      1571  TIP3      OH2           -18.1934071434       25.8631087879        4.4295085013  W2        1571            0.0000000000
      4712      1571  TIP3      H1            -17.5165171434       25.2303387879        4.1894285013  W2        1571            0.0000000000
      4713      1571  TIP3      H2            -17.8715271434       26.2641587879        5.2368385013  W2        1571            0.0000000000
      4714      1572  TIP3      OH2           -13.2760271434        8.4526587879        3.5090085013  W2        1572            0.0000000000
      4715      1572  TIP3      H1            -14.0886771434        8.7776887879        3.1214785013  W2        1572            0.0000000000
      4716      1572  TIP3      H2            -13.0431771434        7.6925087879        2.9759185013  W2        1572            0.0000000000
      4717      1573  TIP3      OH2           -27.4479171434       26.4346087879        2.2735285013  W2        1573            0.0000000000
      4718      1573  TIP3      H1            -28.1682771434       26.8747087879        1.8222985013  W2        1573            0.0000000000
      4719      1573  TIP3      H2            -27.8135171434       26.1840787879        3.1219285013  W2        1573            0.0000000000
      4720      1574  TIP3      OH2           -24.9806571434       26.0349987879        1.3032485013  W2        1574            0.0000000000
      4721      1574  TIP3      H1            -25.8454371434       26.1068487879        1.7072585013  W2        1574            0.0000000000
      4722      1574  TIP3      H2            -25.0357571434       26.5817287879        0.5194985013  W2        1574            0.0000000000
      4723      1575  TIP3      OH2           -20.2700971434       25.9228887879        0.4788485013  W2        1575            0.0000000000
      4724      1575  TIP3      H1            -20.7266971434       26.4518587879       -0.1753114987  W2        1575            0.0000000000
      4725      1575  TIP3      H2            -20.1072971434       26.5260287879        1.2040785013  W2        1575            0.0000000000
      4726      1576  TIP3      OH2           -17.9424671434       24.8008487879        1.4238785013  W2        1576            0.0000000000
      4727      1576  TIP3      H1            -18.8470971434       24.9658687879        1.1580885013  W2        1576            0.0000000000
      4728      1576  TIP3      H2            -17.5136071434       25.6540687879        1.3582185013  W2        1576            0.0000000000
      4729      1577  TIP3      OH2           -15.3382771434       26.3707587879        1.7186585013  W2        1577            0.0000000000
      4730      1577  TIP3      H1            -15.5200771434       27.2866487879        1.5081485013  W2        1577            0.0000000000
      4731      1577  TIP3      H2            -15.1614971434       25.9604687879        0.8721185013  W2        1577            0.0000000000
      4732      1578  TIP3      OH2           -28.0331071434       25.0578587879       -0.8162914987  W2        1578            0.0000000000
      4733      1578  TIP3      H1            -28.0515071434       24.6323687879        0.0409385013  W2        1578            0.0000000000
      4734      1578  TIP3      H2            -27.2283171434       24.7393587879       -1.2250714987  W2        1578            0.0000000000
      4735      1579  TIP3      OH2           -25.8917971434       23.7677287879       -2.1613014987  W2        1579            0.0000000000
      4736      1579  TIP3      H1            -26.1107271434       22.8514687879       -1.9917014987  W2        1579            0.0000000000
      4737      1579  TIP3      H2            -25.0675771434       23.9077687879       -1.6951614987  W2        1579            0.0000000000
      4738      1580  TIP3      OH2           -23.3545471434       24.2376587879       -1.3125014987  W2        1580            0.0000000000
      4739      1580  TIP3      H1            -23.1419771434       23.3495587879       -1.5994114987  W2        1580            0.0000000000
      4740      1580  TIP3      H2            -23.2900371434       24.2034287879       -0.3581014987  W2        1580            0.0000000000
      4741      1581  TIP3      OH2           -19.8461771434        9.9017187879       -2.1681714987  W2        1581            0.0000000000
      4742      1581  TIP3      H1            -20.5204971434        9.2722787879       -1.9125914987  W2        1581            0.0000000000
      4743      1581  TIP3      H2            -19.2822571434        9.4176087879       -2.7713814987  W2        1581            0.0000000000
      4744      1582  TIP3      OH2           -14.7034571434        8.0091187879       -2.0554614987  W2        1582            0.0000000000
      4745      1582  TIP3      H1            -14.0996971434        8.5566587879       -2.5573614987  W2        1582            0.0000000000
      4746      1582  TIP3      H2            -15.5732571434        8.3281587879       -2.2960514987  W2        1582            0.0000000000
      4747      1583  TIP3      OH2           -12.9764171434        9.1479887879       -3.7223714987  W2        1583            0.0000000000
      4748      1583  TIP3      H1            -12.3646671434        8.6335587879       -4.2490114987  W2        1583            0.0000000000
      4749      1583  TIP3      H2            -12.5940771434       10.0251987879       -3.6989314987  W2        1583            0.0000000000
      4750      1584  TIP3      OH2           -27.5194271434        8.5357487879       -4.3461814987  W2        1584            0.0000000000
      4751      1584  TIP3      H1            -28.2964471434        8.3012387879       -4.8535914987  W2        1584            0.0000000000
      4752      1584  TIP3      H2            -26.9890671434        7.7389587879       -4.3373814987  W2        1584            0.0000000000
      4753      1585  TIP3      OH2           -28.6830871434        8.3335587879       -8.5425714987  W2        1585            0.0000000000
      4754      1585  TIP3      H1            -28.2440171434        8.9446087879       -9.1342214987  W2        1585            0.0000000000
      4755      1585  TIP3      H2            -29.3168471434        8.8719687879       -8.0685714987  W2        1585            0.0000000000
      4756      1586  TIP3      OH2           -22.9401671434        8.4624587879       -4.5328714987  W2        1586            0.0000000000
      4757      1586  TIP3      H1            -22.0658271434        8.8508887879       -4.5624414987  W2        1586            0.0000000000
      4758      1586  TIP3      H2            -23.0760871434        8.2472387879       -3.6101514987  W2        1586            0.0000000000
      4759      1587  TIP3      OH2           -17.3833271434        8.4924387879       -2.8837014987  W2        1587            0.0000000000
      4760      1587  TIP3      H1            -17.3071671434        8.5875987879       -3.8331014987  W2        1587            0.0000000000
      4761      1587  TIP3      H2            -17.6584071434        7.5847287879       -2.7547914987  W2        1587            0.0000000000
      4762      1588  TIP3      OH2           -16.0300671434        8.5182187879       -7.1912014987  W2        1588            0.0000000000
      4763      1588  TIP3      H1            -16.7329571434        9.1331387879       -7.4010614987  W2        1588            0.0000000000
      4764      1588  TIP3      H2            -16.4749271434        7.6808887879       -7.0601114987  W2        1588            0.0000000000
      4765      1589  TIP3      OH2           -28.7821371434       24.2817787879       -7.6450614987  W2        1589            0.0000000000
      4766      1589  TIP3      H1            -29.4671471434       24.2436687879       -8.3125514987  W2        1589            0.0000000000
      4767      1589  TIP3      H2            -28.7784171434       25.1945387879       -7.3568514987  W2        1589            0.0000000000
      4768      1590  TIP3      OH2           -26.8221771434       10.2497087879      -10.1001614987  W2        1590            0.0000000000
      4769      1590  TIP3      H1            -26.3308371434        9.6199487879      -10.6276114987  W2        1590            0.0000000000
      4770      1590  TIP3      H2            -26.1985471434       10.5456487879       -9.4370414987  W2        1590            0.0000000000
      4771      1591  TIP3      OH2           -21.7961671434       10.5428587879       -7.6431114987  W2        1591            0.0000000000
      4772      1591  TIP3      H1            -21.6180371434        9.8961787879       -6.9602514987  W2        1591            0.0000000000
      4773      1591  TIP3      H2            -21.8495471434       11.3766287879       -7.1760014987  W2        1591            0.0000000000
      4774      1592  TIP3      OH2           -19.9177871434       25.4912687879       -9.2474414987  W2        1592            0.0000000000
      4775      1592  TIP3      H1            -19.0517671434       25.8580087879       -9.4256214987  W2        1592            0.0000000000
      4776      1592  TIP3      H2            -20.1645071434       25.0520687879      -10.0613614987  W2        1592            0.0000000000
      4777      1593  TIP3      OH2           -13.2088271434       25.0542987879       -6.5683314987  W2        1593            0.0000000000
      4778      1593  TIP3      H1            -13.4031171434       24.3065087879       -7.1333714987  W2        1593            0.0000000000
      4779      1593  TIP3      H2            -13.2478171434       25.8123087879       -7.1515414987  W2        1593            0.0000000000
      4780      1594  TIP3      OH2           -27.5616271434        9.0499387879        5.1714385013  W2        1594            0.0000000000
      4781      1594  TIP3      H1            -27.9278071434        8.2841987879        5.6139085013  W2        1594            0.0000000000
      4782      1594  TIP3      H2            -26.6487771434        9.0789587879        5.4579485013  W2        1594            0.0000000000
      4783      1595  TIP3      OH2           -25.5885471434        8.4003787879        6.7071485013  W2        1595            0.0000000000
      4784      1595  TIP3      H1            -24.6901871434        8.1263987879        6.5224885013  W2        1595            0.0000000000
      4785      1595  TIP3      H2            -25.9752371434        7.6579787879        7.1714085013  W2        1595            0.0000000000
      4786      1596  TIP3      OH2           -26.9640171434       25.2018587879      -10.6198514987  W2        1596            0.0000000000
      4787      1596  TIP3      H1            -27.2315571434       25.4881487879       -9.7465414987  W2        1596            0.0000000000
      4788      1596  TIP3      H2            -26.1927571434       24.6557787879      -10.4676014987  W2        1596            0.0000000000
      4789      1597  TIP3      OH2           -17.1673171434        7.7329087879        6.8894285013  W2        1597            0.0000000000
      4790      1597  TIP3      H1            -17.0905971434        7.3069787879        7.7431985013  W2        1597            0.0000000000
      4791      1597  TIP3      H2            -16.2736571434        7.7463787879        6.5467785013  W2        1597            0.0000000000
      4792      1598  TIP3      OH2           -13.9912071434       23.8055387879        5.5818485013  W2        1598            0.0000000000
      4793      1598  TIP3      H1            -14.7730171434       23.6193387879        5.0619085013  W2        1598            0.0000000000
      4794      1598  TIP3      H2            -14.0632171434       24.7349687879        5.7990985013  W2        1598            0.0000000000
      4795      1599  TIP3      OH2             0.4148328566       17.6919787879       -4.3874314987  W2        1599            0.0000000000
      4796      1599  TIP3      H1              0.5039428566       18.6357987879       -4.5197214987  W2        1599            0.0000000000
      4797      1599  TIP3      H2             -0.2234071434       17.4166187879       -5.0454914987  W2        1599            0.0000000000
      4798      1600  TIP3      OH2            -0.6520371434       16.9470487879       -0.9686114987  W2        1600            0.0000000000
      4799      1600  TIP3      H1             -0.6902871434       16.3006787879       -0.2636514987  W2        1600            0.0000000000
      4800      1600  TIP3      H2             -0.9743871434       16.4804887879       -1.7397414987  W2        1600            0.0000000000
      4801      1601  TIP3      OH2            -8.2835371434       16.5612587879        0.6243785013  W2        1601            0.0000000000
      4802      1601  TIP3      H1             -8.2423271434       15.9355887879        1.3476185013  W2        1601            0.0000000000
      4803      1601  TIP3      H2             -7.5807671434       17.1851187879        0.8064185013  W2        1601            0.0000000000
      4804      1602  TIP3      OH2             3.0539828566       19.8860887879       -2.6671014987  W2        1602            0.0000000000
      4805      1602  TIP3      H1              2.6132528566       19.1656887879       -2.2165414987  W2        1602            0.0000000000
      4806      1602  TIP3      H2              3.0409528566       20.6068087879       -2.0373314987  W2        1602            0.0000000000
      4807      1603  TIP3      OH2            -7.3602271434       21.0111487879       -0.8407114987  W2        1603            0.0000000000
      4808      1603  TIP3      H1             -7.7297071434       20.2091987879       -1.2102814987  W2        1603            0.0000000000
      4809      1603  TIP3      H2             -6.4191171434       20.8426387879       -0.7943714987  W2        1603            0.0000000000
      4810      1604  TIP3      OH2           -10.7501771434       14.6714087879       -5.4478314987  W2        1604            0.0000000000
      4811      1604  TIP3      H1            -11.1978371434       15.5172787879       -5.4661814987  W2        1604            0.0000000000
      4812      1604  TIP3      H2            -11.3110571434       14.0918287879       -5.9633214987  W2        1604            0.0000000000
      4813      1605  TIP3      OH2           -10.0395671434       16.8333687879       -3.3220314987  W2        1605            0.0000000000
      4814      1605  TIP3      H1             -9.8262171434       16.0635287879       -2.7947314987  W2        1605            0.0000000000
      4815      1605  TIP3      H2             -9.3018071434       16.9230387879       -3.9252714987  W2        1605            0.0000000000
      4816      1606  TIP3      OH2             0.1655328566       24.9902587879       -2.4550614987  W2        1606            0.0000000000
      4817      1606  TIP3      H1              0.7851728566       24.3137287879       -2.7281414987  W2        1606            0.0000000000
      4818      1606  TIP3      H2             -0.0427271434       24.7723387879       -1.5465714987  W2        1606            0.0000000000
      4819      1607  TIP3      OH2            -2.2625971434       19.3791887879       -0.5625114987  W2        1607            0.0000000000
      4820      1607  TIP3      H1             -1.9588071434       18.6933287879       -1.1571014987  W2        1607            0.0000000000
      4821      1607  TIP3      H2             -1.5411971434       19.4980587879        0.0552885013  W2        1607            0.0000000000
      4822      1608  TIP3      OH2             6.4003828566       10.9807187879        0.2981085013  W2        1608            0.0000000000
      4823      1608  TIP3      H1              6.4496028566       11.5908387879        1.0340185013  W2        1608            0.0000000000
      4824      1608  TIP3      H2              6.8258928566       11.4418087879       -0.4247814987  W2        1608            0.0000000000
      4825      1609  TIP3      OH2             0.8781028566       13.7734287879       -0.2350314987  W2        1609            0.0000000000
      4826      1609  TIP3      H1              1.0206928566       12.8271287879       -0.2148714987  W2        1609            0.0000000000
      4827      1609  TIP3      H2              0.7720028566       13.9804087879       -1.1635414987  W2        1609            0.0000000000
      4828      1610  TIP3      OH2            -5.9670671434       11.8750687879       -2.9625514987  W2        1610            0.0000000000
      4829      1610  TIP3      H1             -5.9239571434       12.7349187879       -3.3809214987  W2        1610            0.0000000000
      4830      1610  TIP3      H2             -6.4246571434       11.3225387879       -3.5962314987  W2        1610            0.0000000000
      4831      1611  TIP3      OH2             1.7552028566       12.0056287879       -4.5617214987  W2        1611            0.0000000000
      4832      1611  TIP3      H1              2.4016328566       11.6769487879       -3.9369614987  W2        1611            0.0000000000
      4833      1611  TIP3      H2              2.2651428566       12.5235287879       -5.1845814987  W2        1611            0.0000000000
      4834      1612  TIP3      OH2            -9.3469171434       14.2716487879       -2.2004114987  W2        1612            0.0000000000
      4835      1612  TIP3      H1             -8.6932571434       13.7218187879       -1.7684014987  W2        1612            0.0000000000
      4836      1612  TIP3      H2             -9.3229871434       13.9975487879       -3.1172114987  W2        1612            0.0000000000
      4837      1613  TIP3      OH2            -4.1904671434       15.8217787879       -2.9852614987  W2        1613            0.0000000000
      4838      1613  TIP3      H1             -3.5743671434       15.2953187879       -2.4758614987  W2        1613            0.0000000000
      4839      1613  TIP3      H2             -4.7765871434       15.1816487879       -3.3889014987  W2        1613            0.0000000000
      4840      1614  TIP3      OH2             6.7918428566       12.4586387879        2.5340885013  W2        1614            0.0000000000
      4841      1614  TIP3      H1              6.1033028566       13.1167087879        2.4387485013  W2        1614            0.0000000000
      4842      1614  TIP3      H2              6.8073028566       12.2614287879        3.4706285013  W2        1614            0.0000000000
      4843      1615  TIP3      OH2            -7.1568771434       10.7929087879        1.1115285013  W2        1615            0.0000000000
      4844      1615  TIP3      H1             -7.3757071434       11.3229687879        0.3451285013  W2        1615            0.0000000000
      4845      1615  TIP3      H2             -7.8247871434       11.0194587879        1.7586685013  W2        1615            0.0000000000
      4846      1616  TIP3      OH2             0.2121028566       20.2930187879       -5.3445614987  W2        1616            0.0000000000
      4847      1616  TIP3      H1             -0.0833871434       19.9702487879       -6.1958714987  W2        1616            0.0000000000
      4848      1616  TIP3      H2             -0.1121171434       21.1926887879       -5.3033014987  W2        1616            0.0000000000
      4849      1617  TIP3      OH2            -4.5877371434       18.4684787879        1.3988985013  W2        1617            0.0000000000
      4850      1617  TIP3      H1             -5.3278271434       19.0666287879        1.5024185013  W2        1617            0.0000000000
      4851      1617  TIP3      H2             -3.8737871434       19.0224387879        1.0832585013  W2        1617            0.0000000000
      4852      1618  TIP3      OH2             3.5190428566       11.2965587879       -2.5811314987  W2        1618            0.0000000000
      4853      1618  TIP3      H1              3.3038428566       10.5308987879       -2.0485314987  W2        1618            0.0000000000
      4854      1618  TIP3      H2              4.1747828566       11.7690187879       -2.0682814987  W2        1618            0.0000000000
      4855      1619  TIP3      OH2            -7.5631471434       12.6850887879       -0.9362514987  W2        1619            0.0000000000
      4856      1619  TIP3      H1             -6.9495171434       13.3178487879       -0.5630114987  W2        1619            0.0000000000
      4857      1619  TIP3      H2             -7.0510771434       12.2125887879       -1.5925614987  W2        1619            0.0000000000
      4858      1620  TIP3      OH2            -6.1803071434       20.4327787879        2.1860485013  W2        1620            0.0000000000
      4859      1620  TIP3      H1             -6.1855471434       21.3121287879        1.8079785013  W2        1620            0.0000000000
      4860      1620  TIP3      H2             -7.0338971434       20.3491887879        2.6110385013  W2        1620            0.0000000000
      4861      1621  TIP3      OH2           -10.0592171434       20.1035687879       -7.0320214987  W2        1621            0.0000000000
      4862      1621  TIP3      H1            -10.3311271434       20.3326687879       -7.9207314987  W2        1621            0.0000000000
      4863      1621  TIP3      H2            -10.0136471434       20.9414487879       -6.5714914987  W2        1621            0.0000000000
      4864      1622  TIP3      OH2             3.5657528566       21.7251587879       -0.3191714987  W2        1622            0.0000000000
      4865      1622  TIP3      H1              2.6241228566       21.7835487879       -0.1574814987  W2        1622            0.0000000000
      4866      1622  TIP3      H2              3.8423628566       22.6312087879       -0.4562014987  W2        1622            0.0000000000
      4867      1623  TIP3      OH2             3.8664528566       10.0116887879        1.0982185013  W2        1623            0.0000000000
      4868      1623  TIP3      H1              3.1303728566       10.6223987879        1.0603485013  W2        1623            0.0000000000
      4869      1623  TIP3      H2              4.5498528566       10.4265887879        0.5718585013  W2        1623            0.0000000000
      4870      1624  TIP3      OH2            -3.1304071434        8.0984187879       -1.4359814987  W2        1624            0.0000000000
      4871      1624  TIP3      H1             -3.2479871434        7.1500187879       -1.4901514987  W2        1624            0.0000000000
      4872      1624  TIP3      H2             -3.9853971434        8.4310287879       -1.1628714987  W2        1624            0.0000000000
      4873      1625  TIP3      OH2             1.8178728566       23.5065087879       -3.6940114987  W2        1625            0.0000000000
      4874      1625  TIP3      H1              2.2431028566       22.7992987879       -4.1790514987  W2        1625            0.0000000000
      4875      1625  TIP3      H2              2.1348728566       24.3077787879       -4.1107914987  W2        1625            0.0000000000
      4876      1626  TIP3      OH2             2.9775228566       21.4073587879       -5.1853514987  W2        1626            0.0000000000
      4877      1626  TIP3      H1              2.7200028566       20.7173687879       -5.7967614987  W2        1626            0.0000000000
      4878      1626  TIP3      H2              3.0486028566       20.9644787879       -4.3397614987  W2        1626            0.0000000000
      4879      1627  TIP3      OH2             4.6635428566       19.9740287879        3.2919985013  W2        1627            0.0000000000
      4880      1627  TIP3      H1              4.8031728566       19.3822787879        2.5526985013  W2        1627            0.0000000000
      4881      1627  TIP3      H2              4.8308228566       20.8466187879        2.9358785013  W2        1627            0.0000000000
      4882      1628  TIP3      OH2            -0.8639171434       16.9359787879       -6.9354014987  W2        1628            0.0000000000
      4883      1628  TIP3      H1             -1.5753671434       17.4709487879       -7.2873514987  W2        1628            0.0000000000
      4884      1628  TIP3      H2             -0.1729571434       16.9911887879       -7.5955114987  W2        1628            0.0000000000
      4885      1629  TIP3      OH2            -0.8099971434       15.3934087879       -9.8969014987  W2        1629            0.0000000000
      4886      1629  TIP3      H1             -0.1090071434       15.4160987879       -9.2455014987  W2        1629            0.0000000000
      4887      1629  TIP3      H2             -0.5077071434       14.7653787879      -10.5529714987  W2        1629            0.0000000000
      4888      1630  TIP3      OH2             6.5054728566       16.3138287879        1.3580385013  W2        1630            0.0000000000
      4889      1630  TIP3      H1              5.8528828566       17.0083887879        1.4471285013  W2        1630            0.0000000000
      4890      1630  TIP3      H2              6.9705028566       16.5239187879        0.5481985013  W2        1630            0.0000000000
      4891      1631  TIP3      OH2             2.5418528566       17.1453087879       -5.9838114987  W2        1631            0.0000000000
      4892      1631  TIP3      H1              1.8099528566       17.3736787879       -5.4107514987  W2        1631            0.0000000000
      4893      1631  TIP3      H2              2.9890728566       16.4315787879       -5.5290614987  W2        1631            0.0000000000
      4894      1632  TIP3      OH2             2.4392028566       15.3195687879        3.0838885013  W2        1632            0.0000000000
      4895      1632  TIP3      H1              2.5191128566       16.0830087879        3.6557385013  W2        1632            0.0000000000
      4896      1632  TIP3      H2              1.8379728566       15.5988087879        2.3933985013  W2        1632            0.0000000000
      4897      1633  TIP3      OH2            -5.8127771434       17.7759287879       -4.1013114987  W2        1633            0.0000000000
      4898      1633  TIP3      H1             -6.1432571434       17.4052687879       -4.9196114987  W2        1633            0.0000000000
      4899      1633  TIP3      H2             -5.2243671434       17.1053287879       -3.7544814987  W2        1633            0.0000000000
      4900      1634  TIP3      OH2            -4.4460271434       21.2039887879       -1.4200914987  W2        1634            0.0000000000
      4901      1634  TIP3      H1             -4.5408971434       20.6252987879       -2.1766314987  W2        1634            0.0000000000
      4902      1634  TIP3      H2             -3.7166671434       20.8325587879       -0.9238114987  W2        1634            0.0000000000
      4903      1635  TIP3      OH2            -5.4462271434       16.5444887879       -0.4678114987  W2        1635            0.0000000000
      4904      1635  TIP3      H1             -4.8809771434       16.6659087879       -1.2306914987  W2        1635            0.0000000000
      4905      1635  TIP3      H2             -5.1273371434       17.1819887879        0.1710385013  W2        1635            0.0000000000
      4906      1636  TIP3      OH2             0.8629928566       22.0476787879        0.2662385013  W2        1636            0.0000000000
      4907      1636  TIP3      H1              0.6226528566       22.7099887879        0.9141585013  W2        1636            0.0000000000
      4908      1636  TIP3      H2              0.6648128566       21.2131987879        0.6911985013  W2        1636            0.0000000000
      4909      1637  TIP3      OH2            -4.5661571434       20.9437587879        4.2493785013  W2        1637            0.0000000000
      4910      1637  TIP3      H1             -4.8774071434       21.7260787879        4.7046985013  W2        1637            0.0000000000
      4911      1637  TIP3      H2             -5.2161371434       20.7906687879        3.5635785013  W2        1637            0.0000000000
      4912      1638  TIP3      OH2             1.4128028566       16.3075987879       -8.2986914987  W2        1638            0.0000000000
      4913      1638  TIP3      H1              1.9923528566       16.4576287879       -7.5518014987  W2        1638            0.0000000000
      4914      1638  TIP3      H2              1.8268028566       16.7783387879       -9.0220514987  W2        1638            0.0000000000
      4915      1639  TIP3      OH2            -7.6461671434       17.1418687879        3.4779485013  W2        1639            0.0000000000
      4916      1639  TIP3      H1             -7.5758471434       17.7925487879        4.1764485013  W2        1639            0.0000000000
      4917      1639  TIP3      H2             -8.5369471434       17.2446187879        3.1430385013  W2        1639            0.0000000000
      4918      1640  TIP3      OH2            -0.8607071434       23.0444487879       -4.8633814987  W2        1640            0.0000000000
      4919      1640  TIP3      H1             -0.3869471434       23.3400787879       -4.0859614987  W2        1640            0.0000000000
      4920      1640  TIP3      H2             -1.4237771434       23.7826087879       -5.0964214987  W2        1640            0.0000000000
      4921      1641  TIP3      OH2            -6.3265671434       23.0152587879        5.0127585013  W2        1641            0.0000000000
      4922      1641  TIP3      H1             -6.3190371434       22.8792287879        4.0653085013  W2        1641            0.0000000000
      4923      1641  TIP3      H2             -7.2425271434       22.8980687879        5.2647585013  W2        1641            0.0000000000
      4924      1642  TIP3      OH2             5.1116428566        8.0576387879       -8.4857214987  W2        1642            0.0000000000
      4925      1642  TIP3      H1              4.2117128566        8.1965387879       -8.1906614987  W2        1642            0.0000000000
      4926      1642  TIP3      H2              5.3634828566        8.8890987879       -8.8875514987  W2        1642            0.0000000000
      4927      1643  TIP3      OH2            -6.8225071434       16.8453587879       -6.5120314987  W2        1643            0.0000000000
      4928      1643  TIP3      H1             -7.1143771434       17.6135287879       -7.0029014987  W2        1643            0.0000000000
      4929      1643  TIP3      H2             -7.4969871434       16.1859787879       -6.6748914987  W2        1643            0.0000000000
      4930      1644  TIP3      OH2             6.3007828566       22.4238787879      -10.1093314987  W2        1644            0.0000000000
      4931      1644  TIP3      H1              6.3741328566       23.3628987879       -9.9388014987  W2        1644            0.0000000000
      4932      1644  TIP3      H2              7.2062928566       22.1187387879      -10.1656014987  W2        1644            0.0000000000
      4933      1645  TIP3      OH2           -10.7294971434       19.2082787879        2.3029485013  W2        1645            0.0000000000
      4934      1645  TIP3      H1            -11.2306571434       19.1802187879        1.4879185013  W2        1645            0.0000000000
      4935      1645  TIP3      H2            -10.7241271434       18.3025987879        2.6126785013  W2        1645            0.0000000000
      4936      1646  TIP3      OH2           -10.9792271434       21.9886587879       -0.8130314987  W2        1646            0.0000000000
      4937      1646  TIP3      H1            -10.0331671434       21.8443587879       -0.8320814987  W2        1646            0.0000000000
      4938      1646  TIP3      H2            -11.0915971434       22.7729387879       -0.2759114987  W2        1646            0.0000000000
      4939      1647  TIP3      OH2             7.2186228566       22.6546287879        4.8693385013  W2        1647            0.0000000000
      4940      1647  TIP3      H1              7.1693028566       21.6994387879        4.8320985013  W2        1647            0.0000000000
      4941      1647  TIP3      H2              6.3918528566       22.9221587879        5.2707185013  W2        1647            0.0000000000
      4942      1648  TIP3      OH2            -1.8029771434       22.2285487879        3.7454785013  W2        1648            0.0000000000
      4943      1648  TIP3      H1             -1.7155171434       23.0550087879        4.2203885013  W2        1648            0.0000000000
      4944      1648  TIP3      H2             -2.6664671434       21.8989287879        3.9944085013  W2        1648            0.0000000000
      4945      1649  TIP3      OH2            -1.3883971434       26.0009187879       -6.4484614987  W2        1649            0.0000000000
      4946      1649  TIP3      H1             -1.4637971434       25.8796387879       -7.3949414987  W2        1649            0.0000000000
      4947      1649  TIP3      H2             -1.3555271434       26.9501887879       -6.3300014987  W2        1649            0.0000000000
      4948      1650  TIP3      OH2            -7.7350171434       24.7896187879       -4.6675614987  W2        1650            0.0000000000
      4949      1650  TIP3      H1             -7.5829771434       24.4416587879       -3.7889114987  W2        1650            0.0000000000
      4950      1650  TIP3      H2             -8.5859771434       24.4333487879       -4.9228414987  W2        1650            0.0000000000
      4951      1651  TIP3      OH2             1.7132028566       25.1549387879       -9.4462214987  W2        1651            0.0000000000
      4952      1651  TIP3      H1              2.0880428566       24.4105487879       -9.9169614987  W2        1651            0.0000000000
      4953      1651  TIP3      H2              1.7175728566       24.8849987879       -8.5278914987  W2        1651            0.0000000000
      4954      1652  TIP3      OH2             1.3820128566       25.0806487879       -6.6970014987  W2        1652            0.0000000000
      4955      1652  TIP3      H1              0.4469928566       25.1808387879       -6.5183014987  W2        1652            0.0000000000
      4956      1652  TIP3      H2              1.6622028566       24.3712487879       -6.1186814987  W2        1652            0.0000000000
      4957      1653  TIP3      OH2             4.3706028566       14.1478787879        5.3495585013  W2        1653            0.0000000000
      4958      1653  TIP3      H1              3.9632828566       14.6284387879        4.6288885013  W2        1653            0.0000000000
      4959      1653  TIP3      H2              4.4111728566       13.2424787879        5.0416385013  W2        1653            0.0000000000
      4960      1654  TIP3      OH2            -8.4804471434       20.5318187879        3.3462285013  W2        1654            0.0000000000
      4961      1654  TIP3      H1             -8.2643171434       20.1703787879        4.2058085013  W2        1654            0.0000000000
      4962      1654  TIP3      H2             -9.3359771434       20.1571987879        3.1365785013  W2        1654            0.0000000000
      4963      1655  TIP3      OH2            -5.8616471434        9.0018687879       -0.6583514987  W2        1655            0.0000000000
      4964      1655  TIP3      H1             -6.7232771434        8.9146887879       -1.0660614987  W2        1655            0.0000000000
      4965      1655  TIP3      H2             -5.8840771434        9.8578787879       -0.2305914987  W2        1655            0.0000000000
      4966      1656  TIP3      OH2            -1.1988671434        8.7239087879        2.7163485013  W2        1656            0.0000000000
      4967      1656  TIP3      H1             -0.7785571434        8.3086187879        3.4694085013  W2        1656            0.0000000000
      4968      1656  TIP3      H2             -2.1319071434        8.5452387879        2.8335485013  W2        1656            0.0000000000
      4969      1657  TIP3      OH2             2.1276228566       12.4794287879        3.5697985013  W2        1657            0.0000000000
      4970      1657  TIP3      H1              1.6135728566       12.3536487879        4.3673985013  W2        1657            0.0000000000
      4971      1657  TIP3      H2              1.9720928566       13.3917387879        3.3254185013  W2        1657            0.0000000000
      4972      1658  TIP3      OH2             2.8901128566       17.3404287879      -10.6689014987  W2        1658            0.0000000000
      4973      1658  TIP3      H1              2.9321928566       17.1178187879      -11.5989014987  W2        1658            0.0000000000
      4974      1658  TIP3      H2              3.7393228566       17.7391387879      -10.4789114987  W2        1658            0.0000000000
      4975      1659  TIP3      OH2            -1.5371371434       11.2162487879       -9.9985714987  W2        1659            0.0000000000
      4976      1659  TIP3      H1             -1.7906571434       11.2354087879       -9.0757614987  W2        1659            0.0000000000
      4977      1659  TIP3      H2             -1.7939271434       10.3447887879      -10.2999514987  W2        1659            0.0000000000
      4978      1660  TIP3      OH2            -5.7706371434       13.9673187879        0.4366685013  W2        1660            0.0000000000
      4979      1660  TIP3      H1             -6.4124271434       13.9270487879        1.1456785013  W2        1660            0.0000000000
      4980      1660  TIP3      H2             -5.7334371434       14.8937887879        0.1989685013  W2        1660            0.0000000000
      4981      1661  TIP3      OH2            -5.7737271434       14.1883287879       -4.6513314987  W2        1661            0.0000000000
      4982      1661  TIP3      H1             -6.6664371434       13.8479387879       -4.7099514987  W2        1661            0.0000000000
      4983      1661  TIP3      H2             -5.3230671434       13.8114187879       -5.4070114987  W2        1661            0.0000000000
      4984      1662  TIP3      OH2            -0.2381771434       14.6043587879       -5.8342514987  W2        1662            0.0000000000
      4985      1662  TIP3      H1             -0.6471471434       15.4192187879       -6.1257714987  W2        1662            0.0000000000
      4986      1662  TIP3      H2              0.4824428566       14.4643687879       -6.4485414987  W2        1662            0.0000000000
      4987      1663  TIP3      OH2            -1.1360171434       14.7799987879        5.6538185013  W2        1663            0.0000000000
      4988      1663  TIP3      H1             -1.6986371434       14.0751587879        5.9745985013  W2        1663            0.0000000000
      4989      1663  TIP3      H2             -0.3096771434       14.6591887879        6.1215785013  W2        1663            0.0000000000
      4990      1664  TIP3      OH2             0.7665928566       14.0503987879       -3.0202814987  W2        1664            0.0000000000
      4991      1664  TIP3      H1              0.5710428566       14.6560787879       -3.7352214987  W2        1664            0.0000000000
      4992      1664  TIP3      H2              0.9478528566       13.2169187879       -3.4546514987  W2        1664            0.0000000000
      4993      1665  TIP3      OH2            -8.0205871434       14.2876687879        2.3038685013  W2        1665            0.0000000000
      4994      1665  TIP3      H1             -8.0586471434       14.6878287879        3.1725785013  W2        1665            0.0000000000
      4995      1665  TIP3      H2             -8.5114771434       13.4709087879        2.3941585013  W2        1665            0.0000000000
      4996      1666  TIP3      OH2            -4.6548471434       11.6618987879      -10.8975314987  W2        1666            0.0000000000
      4997      1666  TIP3      H1             -5.0857771434       11.2169087879      -10.1677914987  W2        1666            0.0000000000
      4998      1666  TIP3      H2             -5.3729771434       12.0335287879      -11.4097814987  W2        1666            0.0000000000
      4999      1667  TIP3      OH2           -11.4125071434       11.4038487879       -3.8456614987  W2        1667            0.0000000000
      5000      1667  TIP3      H1            -10.7817371434       11.3750587879       -3.1262714987  W2        1667            0.0000000000
      5001      1667  TIP3      H2            -10.9630771434       10.9787187879       -4.5760714987  W2        1667            0.0000000000
      5002      1668  TIP3      OH2           -10.1382971434       12.1500487879       -8.4216214987  W2        1668            0.0000000000
      5003      1668  TIP3      H1             -9.6641271434       12.7410387879       -9.0065314987  W2        1668            0.0000000000
      5004      1668  TIP3      H2            -10.8556571434       12.6803387879       -8.0746114987  W2        1668            0.0000000000
      5005      1669  TIP3      OH2             0.0305128566       15.6885287879        1.6509585013  W2        1669            0.0000000000
      5006      1669  TIP3      H1              0.3539928566       15.0574987879        1.0080085013  W2        1669            0.0000000000
      5007      1669  TIP3      H2             -0.4095571434       15.1537487879        2.3116985013  W2        1669            0.0000000000
      5008      1670  TIP3      OH2            -3.1921971434       11.6160787879       -3.5649214987  W2        1670            0.0000000000
      5009      1670  TIP3      H1             -4.1030871434       11.6727587879       -3.2763214987  W2        1670            0.0000000000
      5010      1670  TIP3      H2             -2.6869071434       11.5556287879       -2.7542014987  W2        1670            0.0000000000
      5011      1671  TIP3      OH2            -8.3638571434       13.2447087879       -4.7381614987  W2        1671            0.0000000000
      5012      1671  TIP3      H1             -9.2530571434       13.3442587879       -5.0782014987  W2        1671            0.0000000000
      5013      1671  TIP3      H2             -8.0673671434       12.4030087879       -5.0843714987  W2        1671            0.0000000000
      5014      1672  TIP3      OH2            -4.7106771434       13.2449687879       -7.0817014987  W2        1672            0.0000000000
      5015      1672  TIP3      H1             -3.7791271434       13.3739687879       -6.9033914987  W2        1672            0.0000000000
      5016      1672  TIP3      H2             -4.9256471434       13.9143987879       -7.7312314987  W2        1672            0.0000000000
      5017      1673  TIP3      OH2             1.2129928566       10.8507087879       -0.3007414987  W2        1673            0.0000000000
      5018      1673  TIP3      H1              0.5361528566       10.9820187879        0.3632285013  W2        1673            0.0000000000
      5019      1673  TIP3      H2              0.7274828566       10.6956587879       -1.1109714987  W2        1673            0.0000000000
      5020      1674  TIP3      OH2            -6.0366571434       14.4391887879       -9.5150914987  W2        1674            0.0000000000
      5021      1674  TIP3      H1             -6.5791471434       14.0595687879      -10.2063314987  W2        1674            0.0000000000
      5022      1674  TIP3      H2             -5.2031671434       14.6336587879       -9.9436814987  W2        1674            0.0000000000
      5023      1675  TIP3      OH2             4.5005028566       26.5222487879        5.9760185013  W2        1675            0.0000000000
      5024      1675  TIP3      H1              4.7003728566       26.9464387879        5.1415485013  W2        1675            0.0000000000
      5025      1675  TIP3      H2              5.1558728566       26.8660687879        6.5830585013  W2        1675            0.0000000000
      5026      1676  TIP3      OH2            -7.9015171434       18.9963787879        5.5840685013  W2        1676            0.0000000000
      5027      1676  TIP3      H1             -7.1692771434       19.2509687879        6.1455185013  W2        1676            0.0000000000
      5028      1676  TIP3      H2             -8.6816471434       19.2009187879        6.0996085013  W2        1676            0.0000000000
      5029      1677  TIP3      OH2            -1.8722271434       14.4033787879       -1.6779614987  W2        1677            0.0000000000
      5030      1677  TIP3      H1             -1.3078871434       13.8570387879       -2.2250014987  W2        1677            0.0000000000
      5031      1677  TIP3      H2             -2.0198871434       13.8815687879       -0.8892014987  W2        1677            0.0000000000
      5032      1678  TIP3      OH2            -6.8702571434       10.5399887879       -5.2594814987  W2        1678            0.0000000000
      5033      1678  TIP3      H1             -7.1873071434        9.6375187879       -5.2949414987  W2        1678            0.0000000000
      5034      1678  TIP3      H2             -6.0888471434       10.5417287879       -5.8123214987  W2        1678            0.0000000000
      5035      1679  TIP3      OH2            -3.2456371434       12.7919887879        0.7360785013  W2        1679            0.0000000000
      5036      1679  TIP3      H1             -4.0811071434       13.2459387879        0.8463185013  W2        1679            0.0000000000
      5037      1679  TIP3      H2             -2.7215771434       13.0678387879        1.4880685013  W2        1679            0.0000000000
      5038      1680  TIP3      OH2            -2.7013771434       19.0047587879       -7.5792814987  W2        1680            0.0000000000
      5039      1680  TIP3      H1             -3.4462771434       18.4972887879       -7.9014914987  W2        1680            0.0000000000
      5040      1680  TIP3      H2             -2.8356571434       19.0535587879       -6.6328014987  W2        1680            0.0000000000
      5041      1681  TIP3      OH2             4.4485128566       18.1375787879        1.2074785013  W2        1681            0.0000000000
      5042      1681  TIP3      H1              5.0903928566       18.5942087879        0.6636985013  W2        1681            0.0000000000
      5043      1681  TIP3      H2              3.6182028566       18.2508187879        0.7448885013  W2        1681            0.0000000000
      5044      1682  TIP3      OH2             1.1963028566       11.8187487879       -9.3800214987  W2        1682            0.0000000000
      5045      1682  TIP3      H1              0.2577228566       11.9303087879       -9.5311414987  W2        1682            0.0000000000
      5046      1682  TIP3      H2              1.4935128566       12.6754387879       -9.0734514987  W2        1682            0.0000000000
      5047      1683  TIP3      OH2            -1.1821671434       19.1890887879        3.6576285013  W2        1683            0.0000000000
      5048      1683  TIP3      H1             -1.5275571434       18.8073287879        4.4645885013  W2        1683            0.0000000000
      5049      1683  TIP3      H2             -1.3821571434       20.1224487879        3.7289185013  W2        1683            0.0000000000
      5050      1684  TIP3      OH2             1.9146528566       13.6860187879       -7.7192814987  W2        1684            0.0000000000
      5051      1684  TIP3      H1              2.8065528566       13.5485187879       -7.4001614987  W2        1684            0.0000000000
      5052      1684  TIP3      H2              1.9710128566       14.4766287879       -8.2559314987  W2        1684            0.0000000000
      5053      1685  TIP3      OH2            -7.5765471434       18.2997587879       -1.8094914987  W2        1685            0.0000000000
      5054      1685  TIP3      H1             -6.8318271434       18.2973287879       -2.4108414987  W2        1685            0.0000000000
      5055      1685  TIP3      H2             -7.4988871434       17.4761387879       -1.3279814987  W2        1685            0.0000000000
      5056      1686  TIP3      OH2            -0.5759671434       20.4631887879       -8.5538214987  W2        1686            0.0000000000
      5057      1686  TIP3      H1             -0.8711271434       21.2899787879       -8.1723414987  W2        1686            0.0000000000
      5058      1686  TIP3      H2             -1.2789671434       19.8438787879       -8.3576814987  W2        1686            0.0000000000
      5059      1687  TIP3      OH2           -10.5685771434       16.7604487879        3.5053585013  W2        1687            0.0000000000
      5060      1687  TIP3      H1            -10.3457171434       16.3424087879        4.3371085013  W2        1687            0.0000000000
      5061      1687  TIP3      H2            -11.1705671434       16.1479487879        3.0826385013  W2        1687            0.0000000000
      5062      1688  TIP3      OH2            -3.5520871434       16.2774387879        5.7183285013  W2        1688            0.0000000000
      5063      1688  TIP3      H1             -3.8480071434       16.1117387879        4.8232385013  W2        1688            0.0000000000
      5064      1688  TIP3      H2             -2.6205671434       16.0574687879        5.7077185013  W2        1688            0.0000000000
      5065      1689  TIP3      OH2             1.0681928566       21.6506387879        3.6081285013  W2        1689            0.0000000000
      5066      1689  TIP3      H1              0.1676228566       21.8338987879        3.3405185013  W2        1689            0.0000000000
      5067      1689  TIP3      H2              1.1023028566       21.9095687879        4.5290085013  W2        1689            0.0000000000
      5068      1690  TIP3      OH2             6.7995228566       13.8954287879       -8.0246114987  W2        1690            0.0000000000
      5069      1690  TIP3      H1              6.2451528566       13.4992287879       -8.6968614987  W2        1690            0.0000000000
      5070      1690  TIP3      H2              6.8998828566       14.8059487879       -8.3022814987  W2        1690            0.0000000000
      5071      1691  TIP3      OH2             6.7627228566       19.6955987879        4.8125385013  W2        1691            0.0000000000
      5072      1691  TIP3      H1              5.9115728566       19.9339787879        4.4451785013  W2        1691            0.0000000000
      5073      1691  TIP3      H2              7.3530628566       19.6789187879        4.0592485013  W2        1691            0.0000000000
      5074      1692  TIP3      OH2             5.0946928566       22.6814687879       -7.5594014987  W2        1692            0.0000000000
      5075      1692  TIP3      H1              4.7218028566       21.8558487879       -7.2503414987  W2        1692            0.0000000000
      5076      1692  TIP3      H2              5.3720428566       22.4984087879       -8.4570614987  W2        1692            0.0000000000
      5077      1693  TIP3      OH2             2.2550828566       17.4894187879       -0.5382114987  W2        1693            0.0000000000
      5078      1693  TIP3      H1              1.3267728566       17.2576087879       -0.5652814987  W2        1693            0.0000000000
      5079      1693  TIP3      H2              2.7061928566       16.7123987879       -0.8683314987  W2        1693            0.0000000000
      5080      1694  TIP3      OH2            -5.2016071434       21.8175787879       -4.4053414987  W2        1694            0.0000000000
      5081      1694  TIP3      H1             -4.6743871434       22.5910187879       -4.6054614987  W2        1694            0.0000000000
      5082      1694  TIP3      H2             -6.0817571434       22.0424987879       -4.7069414987  W2        1694            0.0000000000
      5083      1695  TIP3      OH2            -9.4468371434       16.6799887879       -9.8181014987  W2        1695            0.0000000000
      5084      1695  TIP3      H1             -8.8308471434       17.3067087879       -9.4386214987  W2        1695            0.0000000000
      5085      1695  TIP3      H2            -10.3085771434       16.9959687879       -9.5464514987  W2        1695            0.0000000000
      5086      1696  TIP3      OH2            -3.7743771434       19.4805687879       -4.8289114987  W2        1696            0.0000000000
      5087      1696  TIP3      H1             -4.0153771434       20.4060087879       -4.7873814987  W2        1696            0.0000000000
      5088      1696  TIP3      H2             -4.5150171434       19.0216987879       -4.4325214987  W2        1696            0.0000000000
      5089      1697  TIP3      OH2            -3.2597171434       23.6299287879        1.4861985013  W2        1697            0.0000000000
      5090      1697  TIP3      H1             -2.8972471434       24.4844887879        1.2526385013  W2        1697            0.0000000000
      5091      1697  TIP3      H2             -2.7281971434       23.3380887879        2.2268285013  W2        1697            0.0000000000
      5092      1698  TIP3      OH2            -5.0912971434       24.5023287879       -5.2836914987  W2        1698            0.0000000000
      5093      1698  TIP3      H1             -6.0412471434       24.6080687879       -5.2323614987  W2        1698            0.0000000000
      5094      1698  TIP3      H2             -4.7394871434       25.3230687879       -4.9389414987  W2        1698            0.0000000000
      5095      1699  TIP3      OH2             0.2843628566       19.7289987879        1.1867585013  W2        1699            0.0000000000
      5096      1699  TIP3      H1             -0.1415071434       19.5011687879        2.0131585013  W2        1699            0.0000000000
      5097      1699  TIP3      H2              0.8649428566       18.9901787879        1.0042885013  W2        1699            0.0000000000
      5098      1700  TIP3      OH2             2.4872528566       20.6580487879       -9.7393414987  W2        1700            0.0000000000
      5099      1700  TIP3      H1              2.8405628566       20.2780287879       -8.9349914987  W2        1700            0.0000000000
      5100      1700  TIP3      H2              1.5386028566       20.5645287879       -9.6524114987  W2        1700            0.0000000000
      5101      1701  TIP3      OH2             2.9427828566       24.2809487879        3.6562385013  W2        1701            0.0000000000
      5102      1701  TIP3      H1              2.3411028566       23.7252387879        3.1608685013  W2        1701            0.0000000000
      5103      1701  TIP3      H2              3.2241528566       24.9479287879        3.0299785013  W2        1701            0.0000000000
      5104      1702  TIP3      OH2             6.9906928566       25.1372987879       -9.5383214987  W2        1702            0.0000000000
      5105      1702  TIP3      H1              7.7344828566       25.7233487879       -9.6781614987  W2        1702            0.0000000000
      5106      1702  TIP3      H2              6.2965028566       25.7058787879       -9.2050814987  W2        1702            0.0000000000
      5107      1703  TIP3      OH2            -8.9346271434       11.5137187879        3.0634985013  W2        1703            0.0000000000
      5108      1703  TIP3      H1             -9.8273971434       11.8522587879        2.9958985013  W2        1703            0.0000000000
      5109      1703  TIP3      H2             -9.0333471434       10.6583287879        3.4815785013  W2        1703            0.0000000000
      5110      1704  TIP3      OH2             3.3531828566       19.3302487879       -7.5125514987  W2        1704            0.0000000000
      5111      1704  TIP3      H1              3.0759428566       18.6021787879       -6.9564414987  W2        1704            0.0000000000
      5112      1704  TIP3      H2              4.2804828566       19.4494487879       -7.3072914987  W2        1704            0.0000000000
      5113      1705  TIP3      OH2            -9.2834271434       23.3181587879        1.4984385013  W2        1705            0.0000000000
      5114      1705  TIP3      H1             -9.0663971434       22.3863987879        1.4674085013  W2        1705            0.0000000000
      5115      1705  TIP3      H2             -9.0370771434       23.5926587879        2.3817185013  W2        1705            0.0000000000
      5116      1706  TIP3      OH2            -3.4219671434       21.7696587879      -11.2923414987  W2        1706            0.0000000000
      5117      1706  TIP3      H1             -3.1829871434       21.0214687879      -11.8394514987  W2        1706            0.0000000000
      5118      1706  TIP3      H2             -3.6908371434       21.3818287879      -10.4595614987  W2        1706            0.0000000000
      5119      1707  TIP3      OH2            -4.4849071434       21.3400387879       -8.8360814987  W2        1707            0.0000000000
      5120      1707  TIP3      H1             -4.3381071434       20.8200187879       -8.0459914987  W2        1707            0.0000000000
      5121      1707  TIP3      H2             -4.4877371434       22.2467987879       -8.5294914987  W2        1707            0.0000000000
      5122      1708  TIP3      OH2            -8.0317971434       18.5923687879       -8.3255414987  W2        1708            0.0000000000
      5123      1708  TIP3      H1             -8.7178671434       18.9446187879       -7.7585714987  W2        1708            0.0000000000
      5124      1708  TIP3      H2             -7.5090071434       19.3553287879       -8.5721114987  W2        1708            0.0000000000
      5125      1709  TIP3      OH2            -0.2002871434       11.2547487879        1.9533585013  W2        1709            0.0000000000
      5126      1709  TIP3      H1              0.4985028566       11.3286187879        2.6033285013  W2        1709            0.0000000000
      5127      1709  TIP3      H2             -0.5811471434       10.3902487879        2.1076485013  W2        1709            0.0000000000
      5128      1710  TIP3      OH2             0.5842028566       10.9069187879       -6.9494114987  W2        1710            0.0000000000
      5129      1710  TIP3      H1              0.8040328566       11.3784587879       -7.7528714987  W2        1710            0.0000000000
      5130      1710  TIP3      H2              1.1426028566       11.3011787879       -6.2793514987  W2        1710            0.0000000000
      5131      1711  TIP3      OH2            -1.7471871434       23.0373987879       -8.0866614987  W2        1711            0.0000000000
      5132      1711  TIP3      H1             -2.5635771434       23.5343687879       -8.0342314987  W2        1711            0.0000000000
      5133      1711  TIP3      H2             -1.2175571434       23.5127487879       -8.7267814987  W2        1711            0.0000000000
      5134      1712  TIP3      OH2            -2.2158071434       12.6347987879       -6.1145714987  W2        1712            0.0000000000
      5135      1712  TIP3      H1             -1.4035471434       13.1391187879       -6.0684014987  W2        1712            0.0000000000
      5136      1712  TIP3      H2             -2.4605071434       12.4897687879       -5.2006114987  W2        1712            0.0000000000
      5137      1713  TIP3      OH2            -1.6801671434       13.6210687879        3.0700885013  W2        1713            0.0000000000
      5138      1713  TIP3      H1             -1.5611371434       14.1946087879        3.8271285013  W2        1713            0.0000000000
      5139      1713  TIP3      H2             -1.0247071434       12.9330087879        3.1848685013  W2        1713            0.0000000000
      5140      1714  TIP3      OH2            -1.3321371434        9.7160987879       -5.1764614987  W2        1714            0.0000000000
      5141      1714  TIP3      H1             -1.6787871434       10.3331587879       -4.5320314987  W2        1714            0.0000000000
      5142      1714  TIP3      H2             -0.6734471434       10.2166687879       -5.6579114987  W2        1714            0.0000000000
      5143      1715  TIP3      OH2            -4.4088771434       24.0811187879       -8.1049714987  W2        1715            0.0000000000
      5144      1715  TIP3      H1             -4.2480071434       24.8808687879       -8.6057114987  W2        1715            0.0000000000
      5145      1715  TIP3      H2             -4.6060971434       24.3877187879       -7.2199114987  W2        1715            0.0000000000
      5146      1716  TIP3      OH2            -5.6744371434       10.7790387879       -8.4892114987  W2        1716            0.0000000000
      5147      1716  TIP3      H1             -5.7579571434       11.6673487879       -8.1425714987  W2        1716            0.0000000000
      5148      1716  TIP3      H2             -4.7844071434       10.5137087879       -8.2575314987  W2        1716            0.0000000000
      5149      1717  TIP3      OH2             4.5244128566       11.5280987879        3.9050585013  W2        1717            0.0000000000
      5150      1717  TIP3      H1              3.6079928566       11.7902687879        3.8174285013  W2        1717            0.0000000000
      5151      1717  TIP3      H2              4.8599128566       11.5249987879        3.0085885013  W2        1717            0.0000000000
      5152      1718  TIP3      OH2             3.1265128566       15.2781987879       -1.9992114987  W2        1718            0.0000000000
      5153      1718  TIP3      H1              2.3289528566       14.8632187879       -2.3277114987  W2        1718            0.0000000000
      5154      1718  TIP3      H2              3.5716228566       14.5875687879       -1.5081614987  W2        1718            0.0000000000
      5155      1719  TIP3      OH2            -7.4159071434       21.2062587879       -9.4287614987  W2        1719            0.0000000000
      5156      1719  TIP3      H1             -6.8237571434       21.9057387879       -9.1525214987  W2        1719            0.0000000000
      5157      1719  TIP3      H2             -6.9566071434       20.7732087879      -10.1483014987  W2        1719            0.0000000000
      5158      1720  TIP3      OH2            -9.0999871434       13.8705587879      -10.3128214987  W2        1720            0.0000000000
      5159      1720  TIP3      H1             -9.1447271434       14.8098687879      -10.1341214987  W2        1720            0.0000000000
      5160      1720  TIP3      H2             -9.9876671434       13.6350487879      -10.5826114987  W2        1720            0.0000000000
      5161      1721  TIP3      OH2             4.2129728566       24.5344487879       -0.3768614987  W2        1721            0.0000000000
      5162      1721  TIP3      H1              4.0574028566       25.2128887879       -1.0339314987  W2        1721            0.0000000000
      5163      1721  TIP3      H2              5.1456128566       24.6063787879       -0.1738014987  W2        1721            0.0000000000
      5164      1722  TIP3      OH2            -8.2917871434        8.6522187879       -1.6397214987  W2        1722            0.0000000000
      5165      1722  TIP3      H1             -8.5208071434        8.7114687879       -2.5672214987  W2        1722            0.0000000000
      5166      1722  TIP3      H2             -8.7344471434        7.8607687879       -1.3333114987  W2        1722            0.0000000000
      5167      1723  TIP3      OH2            -9.3614571434       22.5929287879       -5.4791414987  W2        1723            0.0000000000
      5168      1723  TIP3      H1            -10.1935971434       23.0651987879       -5.4520014987  W2        1723            0.0000000000
      5169      1723  TIP3      H2             -8.8156271434       23.1026887879       -6.0778314987  W2        1723            0.0000000000
      5170      1724  TIP3      OH2           -10.0730871434       25.2052987879        5.8506585013  W2        1724            0.0000000000
      5171      1724  TIP3      H1             -9.5328671434       24.9886987879        6.6105785013  W2        1724            0.0000000000
      5172      1724  TIP3      H2            -10.5542871434       24.3998987879        5.6609085013  W2        1724            0.0000000000
      5173      1725  TIP3      OH2            -5.4757471434       24.1247387879        7.4710785013  W2        1725            0.0000000000
      5174      1725  TIP3      H1             -4.7080271434       23.6658187879        7.8119985013  W2        1725            0.0000000000
      5175      1725  TIP3      H2             -5.4971271434       23.8987187879        6.5411985013  W2        1725            0.0000000000
      5176      1726  TIP3      OH2            -1.3837871434       23.6327987879      -11.1537414987  W2        1726            0.0000000000
      5177      1726  TIP3      H1             -2.0276871434       23.0016587879      -10.8323714987  W2        1726            0.0000000000
      5178      1726  TIP3      H2             -0.6219571434       23.1015987879      -11.3853914987  W2        1726            0.0000000000
      5179      1727  TIP3      OH2             1.1011228566       22.5048487879        6.2002285013  W2        1727            0.0000000000
      5180      1727  TIP3      H1              0.7500728566       21.6481487879        6.4432685013  W2        1727            0.0000000000
      5181      1727  TIP3      H2              1.8274428566       22.6475187879        6.8071285013  W2        1727            0.0000000000
      5182      1728  TIP3      OH2             3.2205028566       23.4497887879      -10.9199414987  W2        1728            0.0000000000
      5183      1728  TIP3      H1              3.5035428566       22.6553087879      -10.4672514987  W2        1728            0.0000000000
      5184      1728  TIP3      H2              3.9602928566       23.6828887879      -11.4808314987  W2        1728            0.0000000000
      5185      1729  TIP3      OH2           -10.1661371434       19.0157087879        6.8050885013  W2        1729            0.0000000000
      5186      1729  TIP3      H1            -10.0220871434       18.1137787879        6.5187585013  W2        1729            0.0000000000
      5187      1729  TIP3      H2            -10.9383971434       19.3019187879        6.3173185013  W2        1729            0.0000000000
      5188      1730  TIP3      OH2            -5.8247671434       19.3592787879      -11.0624514987  W2        1730            0.0000000000
      5189      1730  TIP3      H1             -5.7603571434       18.5652387879      -10.5318114987  W2        1730            0.0000000000
      5190      1730  TIP3      H2             -5.1718471434       19.2405587879      -11.7522514987  W2        1730            0.0000000000
      5191      1731  TIP3      OH2            -3.5105271434       18.9855187879        6.2377285013  W2        1731            0.0000000000
      5192      1731  TIP3      H1             -3.8391471434       19.2563287879        5.3804685013  W2        1731            0.0000000000
      5193      1731  TIP3      H2             -3.3587071434       18.0444987879        6.1502285013  W2        1731            0.0000000000
      5194      1732  TIP3      OH2            -0.4724271434       20.4064487879      -11.3266514987  W2        1732            0.0000000000
      5195      1732  TIP3      H1             -0.7410171434       20.5866587879      -10.4257614987  W2        1732            0.0000000000
      5196      1732  TIP3      H2             -0.6788671434       19.4810687879      -11.4580714987  W2        1732            0.0000000000
      5197      1733  TIP3      OH2             2.2239928566       18.9012487879        3.6209585013  W2        1733            0.0000000000
      5198      1733  TIP3      H1              2.9694728566       19.4896187879        3.5013585013  W2        1733            0.0000000000
      5199      1733  TIP3      H2              1.4666728566       19.4832187879        3.6842685013  W2        1733            0.0000000000
      5200      1734  TIP3      OH2            -9.3334871434       16.2160387879        6.2250185013  W2        1734            0.0000000000
      5201      1734  TIP3      H1             -8.9253671434       15.3586987879        6.1040785013  W2        1734            0.0000000000
      5202      1734  TIP3      H2             -9.5937271434       16.2301687879        7.1460485013  W2        1734            0.0000000000
      5203      1735  TIP3      OH2            -4.6753871434       17.3318987879       -8.7566514987  W2        1735            0.0000000000
      5204      1735  TIP3      H1             -5.1351871434       16.8477287879       -8.0708014987  W2        1735            0.0000000000
      5205      1735  TIP3      H2             -4.4205171434       16.6634387879       -9.3926014987  W2        1735            0.0000000000
      5206      1736  TIP3      OH2            -5.3864571434       15.2246087879        3.5993085013  W2        1736            0.0000000000
      5207      1736  TIP3      H1             -6.0048471434       15.8992687879        3.8797785013  W2        1736            0.0000000000
      5208      1736  TIP3      H2             -5.0423371434       15.5459987879        2.7659285013  W2        1736            0.0000000000
      5209      1737  TIP3      OH2            -3.6043471434       15.5750787879      -10.4943314987  W2        1737            0.0000000000
      5210      1737  TIP3      H1             -3.7848471434       15.4201987879      -11.4215014987  W2        1737            0.0000000000
      5211      1737  TIP3      H2             -2.6542971434       15.6829487879      -10.4495414987  W2        1737            0.0000000000
      5212      1738  TIP3      OH2            -0.3666371434       17.6961387879        6.8767885013  W2        1738            0.0000000000
      5213      1738  TIP3      H1              0.5864828566       17.7800487879        6.8493885013  W2        1738            0.0000000000
      5214      1738  TIP3      H2             -0.5271771434       16.9843187879        7.4962785013  W2        1738            0.0000000000
      5215      1739  TIP3      OH2             5.7854828566       17.9294987879      -11.0485214987  W2        1739            0.0000000000
      5216      1739  TIP3      H1              5.5119628566       17.5050487879      -11.8616914987  W2        1739            0.0000000000
      5217      1739  TIP3      H2              5.8248928566       18.8609487879      -11.2654814987  W2        1739            0.0000000000
      5218      1740  TIP3      OH2            -5.0470871434       12.5796887879        4.6816185013  W2        1740            0.0000000000
      5219      1740  TIP3      H1             -4.8969971434       11.8508187879        4.0795885013  W2        1740            0.0000000000
      5220      1740  TIP3      H2             -5.0448471434       13.3568587879        4.1228385013  W2        1740            0.0000000000
      5221      1741  TIP3      OH2            -4.6345171434       10.9492687879        2.1743585013  W2        1741            0.0000000000
      5222      1741  TIP3      H1             -4.0987671434       11.4009387879        1.5222885013  W2        1741            0.0000000000
      5223      1741  TIP3      H2             -5.4865571434       10.8412487879        1.7517685013  W2        1741            0.0000000000
      5224      1742  TIP3      OH2            -3.0526771434       16.3888887879        2.4138785013  W2        1742            0.0000000000
      5225      1742  TIP3      H1             -2.3021971434       16.2326387879        1.8406585013  W2        1742            0.0000000000
      5226      1742  TIP3      H2             -3.3918471434       17.2405487879        2.1384285013  W2        1742            0.0000000000
      5227      1743  TIP3      OH2             1.3629428566       14.2040687879        7.4424085013  W2        1743            0.0000000000
      5228      1743  TIP3      H1              1.5550728566       13.2730087879        7.3308585013  W2        1743            0.0000000000
      5229      1743  TIP3      H2              2.2205728566       14.6290187879        7.4319485013  W2        1743            0.0000000000
      5230      1744  TIP3      OH2             2.6796628566       16.9925887879        5.5196785013  W2        1744            0.0000000000
      5231      1744  TIP3      H1              2.3981628566       17.7020487879        4.9420585013  W2        1744            0.0000000000
      5232      1744  TIP3      H2              3.6220928566       16.9198887879        5.3687985013  W2        1744            0.0000000000
      5233      1745  TIP3      OH2            -6.5684571434       13.7780387879        6.5931785013  W2        1745            0.0000000000
      5234      1745  TIP3      H1             -7.3355571434       13.2455187879        6.3829385013  W2        1745            0.0000000000
      5235      1745  TIP3      H2             -5.8895571434       13.4680787879        5.9938085013  W2        1745            0.0000000000
      5236      1746  TIP3      OH2            -3.8289671434        8.4058387879        2.6057185013  W2        1746            0.0000000000
      5237      1746  TIP3      H1             -3.9270071434        9.3521587879        2.5003385013  W2        1746            0.0000000000
      5238      1746  TIP3      H2             -4.5713471434        8.0332187879        2.1300685013  W2        1746            0.0000000000
      5239      1747  TIP3      OH2            -2.5649171434       12.7273787879        6.1695585013  W2        1747            0.0000000000
      5240      1747  TIP3      H1             -2.8003771434       12.5080487879        7.0710485013  W2        1747            0.0000000000
      5241      1747  TIP3      H2             -3.3482271434       12.5204987879        5.6598085013  W2        1747            0.0000000000
      5242      1748  TIP3      OH2             0.1507428566       11.8547287879        5.2449085013  W2        1748            0.0000000000
      5243      1748  TIP3      H1             -0.7967171434       11.8866987879        5.3772385013  W2        1748            0.0000000000
      5244      1748  TIP3      H2              0.4634128566       11.2294387879        5.8987285013  W2        1748            0.0000000000
      5245      1749  TIP3      OH2             1.7848928566       10.4888387879        7.2500985013  W2        1749            0.0000000000
      5246      1749  TIP3      H1              1.6880728566        9.5365687879        7.2442885013  W2        1749            0.0000000000
      5247      1749  TIP3      H2              1.4632028566       10.7575187879        8.1106485013  W2        1749            0.0000000000
      5248      1750  TIP3      OH2            -8.3881771434       11.6984187879        6.2976485013  W2        1750            0.0000000000
      5249      1750  TIP3      H1             -8.1764371434       10.9920287879        5.6873985013  W2        1750            0.0000000000
      5250      1750  TIP3      H2             -8.4994271434       11.2610187879        7.1417685013  W2        1750            0.0000000000
      5251      1751  TIP3      OH2            -3.6071571434        7.6995787879        5.2769985013  W2        1751            0.0000000000
      5252      1751  TIP3      H1             -2.8953171434        7.0597987879        5.2629085013  W2        1751            0.0000000000
      5253      1751  TIP3      H2             -3.7081171434        7.9664087879        4.3633085013  W2        1751            0.0000000000
      5254      1752  TIP3      OH2            -3.2534071434        9.3824187879        7.3306285013  W2        1752            0.0000000000
      5255      1752  TIP3      H1             -3.3851871434        8.9067987879        6.5104785013  W2        1752            0.0000000000
      5256      1752  TIP3      H2             -3.8526671434       10.1267787879        7.2753385013  W2        1752            0.0000000000
      5257      1753  TIP3      OH2            -3.7071771434       26.2654487879       -9.4929714987  W2        1753            0.0000000000
      5258      1753  TIP3      H1             -2.7741071434       26.4233187879       -9.3491314987  W2        1753            0.0000000000
      5259      1753  TIP3      H2             -3.9712971434       26.9407487879      -10.1178214987  W2        1753            0.0000000000
      5260      1754  TIP3      OH2           -10.1386871434       20.9018287879      -10.0101614987  W2        1754            0.0000000000
      5261      1754  TIP3      H1             -9.2247671434       20.9807187879       -9.7367714987  W2        1754            0.0000000000
      5262      1754  TIP3      H2            -10.1313771434       20.2147887879      -10.6766014987  W2        1754            0.0000000000
      5263      1755  TIP3      OH2           -11.4896271434       26.2946787879       -4.9327714987  W2        1755            0.0000000000
      5264      1755  TIP3      H1            -12.1369171434       25.8328487879       -5.4656514987  W2        1755            0.0000000000
      5265      1755  TIP3      H2            -11.1351671434       25.6230087879       -4.3501514987  W2        1755            0.0000000000
      5266      1756  TIP3      OH2           -10.6197071434       24.3753787879       -3.1281514987  W2        1756            0.0000000000
      5267      1756  TIP3      H1            -10.9540271434       23.4951087879       -2.9561314987  W2        1756            0.0000000000
      5268      1756  TIP3      H2            -10.3974671434       24.7208787879       -2.2635914987  W2        1756            0.0000000000
      5269      1757  TIP3      OH2             6.9287728566       25.1850187879       -0.1476714987  W2        1757            0.0000000000
      5270      1757  TIP3      H1              6.9074428566       25.3698587879        0.7912685013  W2        1757            0.0000000000
      5271      1757  TIP3      H2              7.6193928566       25.7534187879       -0.4885314987  W2        1757            0.0000000000
      5272      1758  TIP3      OH2             6.4920628566       24.7521287879        2.7742385013  W2        1758            0.0000000000
      5273      1758  TIP3      H1              6.0049328566       24.0165387879        2.4029785013  W2        1758            0.0000000000
      5274      1758  TIP3      H2              7.0413328566       24.3585187879        3.4521785013  W2        1758            0.0000000000
      5275      1759  TIP3      OH2             4.9427928566       20.5419387879        7.4122685013  W2        1759            0.0000000000
      5276      1759  TIP3      H1              4.0769028566       20.4369087879        7.8064985013  W2        1759            0.0000000000
      5277      1759  TIP3      H2              5.3193828566       21.3002687879        7.8587385013  W2        1759            0.0000000000
      5278      1760  TIP3      OH2             6.2437628566       18.7983087879       -7.0734814987  W2        1760            0.0000000000
      5279      1760  TIP3      H1              7.0939028566       19.2193987879       -6.9463214987  W2        1760            0.0000000000
      5280      1760  TIP3      H2              6.2492728566       18.0583187879       -6.4663414987  W2        1760            0.0000000000
      5281      1761  TIP3      OH2             6.6383228566       16.8520487879       -5.2499114987  W2        1761            0.0000000000
      5282      1761  TIP3      H1              5.9117828566       16.3723087879       -4.8521514987  W2        1761            0.0000000000
      5283      1761  TIP3      H2              7.2196528566       17.0575187879       -4.5177514987  W2        1761            0.0000000000
      5284      1762  TIP3      OH2             6.3974428566       19.6367987879       -0.3021514987  W2        1762            0.0000000000
      5285      1762  TIP3      H1              7.2308628566       19.2587987879       -0.5827914987  W2        1762            0.0000000000
      5286      1762  TIP3      H2              6.5094728566       20.5799187879       -0.4212414987  W2        1762            0.0000000000
      5287      1763  TIP3      OH2             4.8836728566       22.5145487879        2.0046885013  W2        1763            0.0000000000
      5288      1763  TIP3      H1              4.2362028566       22.8396987879        2.6302085013  W2        1763            0.0000000000
      5289      1763  TIP3      H2              4.3660728566       22.0743187879        1.3305185013  W2        1763            0.0000000000
      5290      1764  TIP3      OH2             6.9066328566       16.7528987879       -8.8587814987  W2        1764            0.0000000000
      5291      1764  TIP3      H1              6.3847428566       17.1093087879       -9.5776914987  W2        1764            0.0000000000
      5292      1764  TIP3      H2              6.8735528566       17.4276787879       -8.1806914987  W2        1764            0.0000000000
      5293      1765  TIP3      OH2             5.2555328566       13.9924587879      -10.3080714987  W2        1765            0.0000000000
      5294      1765  TIP3      H1              5.3519728566       14.6591587879      -10.9881014987  W2        1765            0.0000000000
      5295      1765  TIP3      H2              5.1154928566       13.1770887879      -10.7895214987  W2        1765            0.0000000000
      5296      1766  TIP3      OH2             4.4250028566       15.3726987879       -4.6870414987  W2        1766            0.0000000000
      5297      1766  TIP3      H1              4.2748828566       14.4275587879       -4.7072614987  W2        1766            0.0000000000
      5298      1766  TIP3      H2              4.0714528566       15.6538387879       -3.8431314987  W2        1766            0.0000000000
      5299      1767  TIP3      OH2           -10.5397571434       17.4509187879       -0.6766614987  W2        1767            0.0000000000
      5300      1767  TIP3      H1            -10.3554671434       17.3690887879       -1.6123714987  W2        1767            0.0000000000
      5301      1767  TIP3      H2             -9.6904671434       17.3266187879       -0.2530214987  W2        1767            0.0000000000
      5302      1768  TIP3      OH2             5.2812928566       17.3430287879        4.9517885013  W2        1768            0.0000000000
      5303      1768  TIP3      H1              5.8640228566       16.6082587879        5.1435085013  W2        1768            0.0000000000
      5304      1768  TIP3      H2              5.8452228566       18.1150587879        4.9983685013  W2        1768            0.0000000000
      5305      1769  TIP3      OH2             6.7780028566       15.2456087879        5.6363285013  W2        1769            0.0000000000
      5306      1769  TIP3      H1              5.9146728566       14.8668187879        5.4707985013  W2        1769            0.0000000000
      5307      1769  TIP3      H2              7.3823728566       14.5070887879        5.5619085013  W2        1769            0.0000000000
      5308      1770  TIP3      OH2             4.5029128566       11.4004387879      -11.1905214987  W2        1770            0.0000000000
      5309      1770  TIP3      H1              5.1134928566       11.0291187879      -10.5537014987  W2        1770            0.0000000000
      5310      1770  TIP3      H2              3.6660628566       10.9791287879      -10.9945214987  W2        1770            0.0000000000
      5311      1771  TIP3      OH2             4.1354828566       12.9552787879       -6.2245314987  W2        1771            0.0000000000
      5312      1771  TIP3      H1              4.4151928566       12.0483187879       -6.1003614987  W2        1771            0.0000000000
      5313      1771  TIP3      H2              4.8946528566       13.3894287879       -6.6136114987  W2        1771            0.0000000000
      5314      1772  TIP3      OH2             4.7473128566       13.5370187879       -0.7886414987  W2        1772            0.0000000000
      5315      1772  TIP3      H1              5.6801128566       13.7490087879       -0.8230414987  W2        1772            0.0000000000
      5316      1772  TIP3      H2              4.5120628566       13.6382287879        0.1336585013  W2        1772            0.0000000000
      5317      1773  TIP3      OH2             4.7765028566       14.2735487879        1.9872985013  W2        1773            0.0000000000
      5318      1773  TIP3      H1              3.9336328566       14.5415887879        2.3532785013  W2        1773            0.0000000000
      5319      1773  TIP3      H2              5.2189328566       15.0957387879        1.7764085013  W2        1773            0.0000000000
      5320      1774  TIP3      OH2           -10.9422771434       12.7214187879        5.4642185013  W2        1774            0.0000000000
      5321      1774  TIP3      H1            -10.0227871434       12.5992487879        5.7005285013  W2        1774            0.0000000000
      5322      1774  TIP3      H2            -11.3918271434       11.9713887879        5.8535685013  W2        1774            0.0000000000
      5323      1775  TIP3      OH2             7.0596628566        8.2535687879        7.3407985013  W2        1775            0.0000000000
      5324      1775  TIP3      H1              7.4093628566        7.5999187879        6.7352685013  W2        1775            0.0000000000
      5325      1775  TIP3      H2              7.2066128566        9.0909787879        6.9010585013  W2        1775            0.0000000000
      5326      1776  TIP3      OH2             4.7489628566       10.2182087879       -6.1763314987  W2        1776            0.0000000000
      5327      1776  TIP3      H1              4.9314628566        9.7693587879       -5.3508314987  W2        1776            0.0000000000
      5328      1776  TIP3      H2              4.1492528566        9.6336487879       -6.6398714987  W2        1776            0.0000000000
      5329      1777  TIP3      OH2            -9.7210271434       11.0335787879       -1.6444914987  W2        1777            0.0000000000
      5330      1777  TIP3      H1             -9.2758671434       10.2418287879       -1.3425214987  W2        1777            0.0000000000
      5331      1777  TIP3      H2             -9.2547271434       11.7500987879       -1.2139314987  W2        1777            0.0000000000
      5332      1778  TIP3      OH2           -11.4169971434       14.0328787879       -0.5754714987  W2        1778            0.0000000000
      5333      1778  TIP3      H1            -10.9250171434       13.8119287879       -1.3662714987  W2        1778            0.0000000000
      5334      1778  TIP3      H2            -11.0549071434       14.8732187879       -0.2945214987  W2        1778            0.0000000000
      5335      1779  TIP3      OH2             6.5793828566       10.3630287879        5.6899285013  W2        1779            0.0000000000
      5336      1779  TIP3      H1              5.6619528566       10.6337387879        5.6542785013  W2        1779            0.0000000000
      5337      1779  TIP3      H2              6.7023228566        9.8278687879        4.9058985013  W2        1779            0.0000000000
      5338      1780  TIP3      OH2             6.6155828566       10.2860187879       -9.6483014987  W2        1780            0.0000000000
      5339      1780  TIP3      H1              7.0278428566        9.5645887879      -10.1235014987  W2        1780            0.0000000000
      5340      1780  TIP3      H2              7.2972328566       10.9554787879       -9.5898714987  W2        1780            0.0000000000
      5341      1781  TIP3      OH2           -11.1033471434       10.2907887879       -6.5212314987  W2        1781            0.0000000000
      5342      1781  TIP3      H1            -12.0285071434       10.4994487879       -6.6506814987  W2        1781            0.0000000000
      5343      1781  TIP3      H2            -10.6493571434       10.7748687879       -7.2110014987  W2        1781            0.0000000000
      5344      1782  TIP3      OH2             3.6673728566       25.2749587879       -4.5754914987  W2        1782            0.0000000000
      5345      1782  TIP3      H1              4.3196628566       24.9271687879       -5.1835814987  W2        1782            0.0000000000
      5346      1782  TIP3      H2              4.1777528566       25.7632787879       -3.9295214987  W2        1782            0.0000000000
      5347      1783  TIP3      OH2           -11.1398071434        9.0286887879        1.8230185013  W2        1783            0.0000000000
      5348      1783  TIP3      H1            -11.8047571434        8.7827187879        2.4661085013  W2        1783            0.0000000000
      5349      1783  TIP3      H2            -11.5826771434        9.6507287879        1.2458185013  W2        1783            0.0000000000
      5350      1784  TIP3      OH2            -8.9478771434       22.2040987879        5.9675985013  W2        1784            0.0000000000
      5351      1784  TIP3      H1             -9.7686271434       22.3787487879        5.5070685013  W2        1784            0.0000000000
      5352      1784  TIP3      H2             -9.2000971434       22.1305687879        6.8880385013  W2        1784            0.0000000000
      5353      1785  TIP3      OH2            -5.9935871434       23.1782187879        2.2259985013  W2        1785            0.0000000000
      5354      1785  TIP3      H1             -6.4184771434       23.9880687879        1.9434585013  W2        1785            0.0000000000
      5355      1785  TIP3      H2             -5.0893071434       23.2636287879        1.9239785013  W2        1785            0.0000000000
      5356      1786  TIP3      OH2            -1.6824471434       24.5772187879        5.1853685013  W2        1786            0.0000000000
      5357      1786  TIP3      H1             -1.4976971434       24.2438287879        6.0633985013  W2        1786            0.0000000000
      5358      1786  TIP3      H2             -0.8359971434       24.8870787879        4.8632885013  W2        1786            0.0000000000
      5359      1787  TIP3      OH2             0.6625928566       25.8631087879        4.4295085013  W2        1787            0.0000000000
      5360      1787  TIP3      H1              1.3394828566       25.2303387879        4.1894285013  W2        1787            0.0000000000
      5361      1787  TIP3      H2              0.9844728566       26.2641587879        5.2368385013  W2        1787            0.0000000000
      5362      1788  TIP3      OH2             5.5799728566        8.4526587879        3.5090085013  W2        1788            0.0000000000
      5363      1788  TIP3      H1              4.7673228566        8.7776887879        3.1214785013  W2        1788            0.0000000000
      5364      1788  TIP3      H2              5.8128228566        7.6925087879        2.9759185013  W2        1788            0.0000000000
      5365      1789  TIP3      OH2            -8.5919171434       26.4346087879        2.2735285013  W2        1789            0.0000000000
      5366      1789  TIP3      H1             -9.3122771434       26.8747087879        1.8222985013  W2        1789            0.0000000000
      5367      1789  TIP3      H2             -8.9575171434       26.1840787879        3.1219285013  W2        1789            0.0000000000
      5368      1790  TIP3      OH2            -6.1246571434       26.0349987879        1.3032485013  W2        1790            0.0000000000
      5369      1790  TIP3      H1             -6.9894371434       26.1068487879        1.7072585013  W2        1790            0.0000000000
      5370      1790  TIP3      H2             -6.1797571434       26.5817287879        0.5194985013  W2        1790            0.0000000000
      5371      1791  TIP3      OH2            -1.4140971434       25.9228887879        0.4788485013  W2        1791            0.0000000000
      5372      1791  TIP3      H1             -1.8706971434       26.4518587879       -0.1753114987  W2        1791            0.0000000000
      5373      1791  TIP3      H2             -1.2512971434       26.5260287879        1.2040785013  W2        1791            0.0000000000
      5374      1792  TIP3      OH2             0.9135328566       24.8008487879        1.4238785013  W2        1792            0.0000000000
      5375      1792  TIP3      H1              0.0089028566       24.9658687879        1.1580885013  W2        1792            0.0000000000
      5376      1792  TIP3      H2              1.3423928566       25.6540687879        1.3582185013  W2        1792            0.0000000000
      5377      1793  TIP3      OH2             3.5177228566       26.3707587879        1.7186585013  W2        1793            0.0000000000
      5378      1793  TIP3      H1              3.3359228566       27.2866487879        1.5081485013  W2        1793            0.0000000000
      5379      1793  TIP3      H2              3.6945028566       25.9604687879        0.8721185013  W2        1793            0.0000000000
      5380      1794  TIP3      OH2            -9.1771071434       25.0578587879       -0.8162914987  W2        1794            0.0000000000
      5381      1794  TIP3      H1             -9.1955071434       24.6323687879        0.0409385013  W2        1794            0.0000000000
      5382      1794  TIP3      H2             -8.3723171434       24.7393587879       -1.2250714987  W2        1794            0.0000000000
      5383      1795  TIP3      OH2            -7.0357971434       23.7677287879       -2.1613014987  W2        1795            0.0000000000
      5384      1795  TIP3      H1             -7.2547271434       22.8514687879       -1.9917014987  W2        1795            0.0000000000
      5385      1795  TIP3      H2             -6.2115771434       23.9077687879       -1.6951614987  W2        1795            0.0000000000
      5386      1796  TIP3      OH2            -4.4985471434       24.2376587879       -1.3125014987  W2        1796            0.0000000000
      5387      1796  TIP3      H1             -4.2859771434       23.3495587879       -1.5994114987  W2        1796            0.0000000000
      5388      1796  TIP3      H2             -4.4340371434       24.2034287879       -0.3581014987  W2        1796            0.0000000000
      5389      1797  TIP3      OH2            -0.9901771434        9.9017187879       -2.1681714987  W2        1797            0.0000000000
      5390      1797  TIP3      H1             -1.6644971434        9.2722787879       -1.9125914987  W2        1797            0.0000000000
      5391      1797  TIP3      H2             -0.4262571434        9.4176087879       -2.7713814987  W2        1797            0.0000000000
      5392      1798  TIP3      OH2             4.1525428566        8.0091187879       -2.0554614987  W2        1798            0.0000000000
      5393      1798  TIP3      H1              4.7563028566        8.5566587879       -2.5573614987  W2        1798            0.0000000000
      5394      1798  TIP3      H2              3.2827428566        8.3281587879       -2.2960514987  W2        1798            0.0000000000
      5395      1799  TIP3      OH2             5.8795828566        9.1479887879       -3.7223714987  W2        1799            0.0000000000
      5396      1799  TIP3      H1              6.4913328566        8.6335587879       -4.2490114987  W2        1799            0.0000000000
      5397      1799  TIP3      H2              6.2619228566       10.0251987879       -3.6989314987  W2        1799            0.0000000000
      5398      1800  TIP3      OH2            -8.6634271434        8.5357487879       -4.3461814987  W2        1800            0.0000000000
      5399      1800  TIP3      H1             -9.4404471434        8.3012387879       -4.8535914987  W2        1800            0.0000000000
      5400      1800  TIP3      H2             -8.1330671434        7.7389587879       -4.3373814987  W2        1800            0.0000000000
      5401      1801  TIP3      OH2            -9.8270871434        8.3335587879       -8.5425714987  W2        1801            0.0000000000
      5402      1801  TIP3      H1             -9.3880171434        8.9446087879       -9.1342214987  W2        1801            0.0000000000
      5403      1801  TIP3      H2            -10.4608471434        8.8719687879       -8.0685714987  W2        1801            0.0000000000
      5404      1802  TIP3      OH2            -4.0841671434        8.4624587879       -4.5328714987  W2        1802            0.0000000000
      5405      1802  TIP3      H1             -3.2098271434        8.8508887879       -4.5624414987  W2        1802            0.0000000000
      5406      1802  TIP3      H2             -4.2200871434        8.2472387879       -3.6101514987  W2        1802            0.0000000000
      5407      1803  TIP3      OH2             1.4726728566        8.4924387879       -2.8837014987  W2        1803            0.0000000000
      5408      1803  TIP3      H1              1.5488328566        8.5875987879       -3.8331014987  W2        1803            0.0000000000
      5409      1803  TIP3      H2              1.1975928566        7.5847287879       -2.7547914987  W2        1803            0.0000000000
      5410      1804  TIP3      OH2             2.8259328566        8.5182187879       -7.1912014987  W2        1804            0.0000000000
      5411      1804  TIP3      H1              2.1230428566        9.1331387879       -7.4010614987  W2        1804            0.0000000000
      5412      1804  TIP3      H2              2.3810728566        7.6808887879       -7.0601114987  W2        1804            0.0000000000
      5413      1805  TIP3      OH2            -9.9261371434       24.2817787879       -7.6450614987  W2        1805            0.0000000000
      5414      1805  TIP3      H1            -10.6111471434       24.2436687879       -8.3125514987  W2        1805            0.0000000000
      5415      1805  TIP3      H2             -9.9224171434       25.1945387879       -7.3568514987  W2        1805            0.0000000000
      5416      1806  TIP3      OH2            -7.9661771434       10.2497087879      -10.1001614987  W2        1806            0.0000000000
      5417      1806  TIP3      H1             -7.4748371434        9.6199487879      -10.6276114987  W2        1806            0.0000000000
      5418      1806  TIP3      H2             -7.3425471434       10.5456487879       -9.4370414987  W2        1806            0.0000000000
      5419      1807  TIP3      OH2            -2.9401671434       10.5428587879       -7.6431114987  W2        1807            0.0000000000
      5420      1807  TIP3      H1             -2.7620371434        9.8961787879       -6.9602514987  W2        1807            0.0000000000
      5421      1807  TIP3      H2             -2.9935471434       11.3766287879       -7.1760014987  W2        1807            0.0000000000
      5422      1808  TIP3      OH2            -1.0617871434       25.4912687879       -9.2474414987  W2        1808            0.0000000000
      5423      1808  TIP3      H1             -0.1957671434       25.8580087879       -9.4256214987  W2        1808            0.0000000000
      5424      1808  TIP3      H2             -1.3085071434       25.0520687879      -10.0613614987  W2        1808            0.0000000000
      5425      1809  TIP3      OH2             5.6471728566       25.0542987879       -6.5683314987  W2        1809            0.0000000000
      5426      1809  TIP3      H1              5.4528828566       24.3065087879       -7.1333714987  W2        1809            0.0000000000
      5427      1809  TIP3      H2              5.6081828566       25.8123087879       -7.1515414987  W2        1809            0.0000000000
      5428      1810  TIP3      OH2            -8.7056271434        9.0499387879        5.1714385013  W2        1810            0.0000000000
      5429      1810  TIP3      H1             -9.0718071434        8.2841987879        5.6139085013  W2        1810            0.0000000000
      5430      1810  TIP3      H2             -7.7927771434        9.0789587879        5.4579485013  W2        1810            0.0000000000
      5431      1811  TIP3      OH2            -6.7325471434        8.4003787879        6.7071485013  W2        1811            0.0000000000
      5432      1811  TIP3      H1             -5.8341871434        8.1263987879        6.5224885013  W2        1811            0.0000000000
      5433      1811  TIP3      H2             -7.1192371434        7.6579787879        7.1714085013  W2        1811            0.0000000000
      5434      1812  TIP3      OH2            -8.1080171434       25.2018587879      -10.6198514987  W2        1812            0.0000000000
      5435      1812  TIP3      H1             -8.3755571434       25.4881487879       -9.7465414987  W2        1812            0.0000000000
      5436      1812  TIP3      H2             -7.3367571434       24.6557787879      -10.4676014987  W2        1812            0.0000000000
      5437      1813  TIP3      OH2             1.6886828566        7.7329087879        6.8894285013  W2        1813            0.0000000000
      5438      1813  TIP3      H1              1.7654028566        7.3069787879        7.7431985013  W2        1813            0.0000000000
      5439      1813  TIP3      H2              2.5823428566        7.7463787879        6.5467785013  W2        1813            0.0000000000
      5440      1814  TIP3      OH2             4.8647928566       23.8055387879        5.5818485013  W2        1814            0.0000000000
      5441      1814  TIP3      H1              4.0829828566       23.6193387879        5.0619085013  W2        1814            0.0000000000
      5442      1814  TIP3      H2              4.7927828566       24.7349687879        5.7990985013  W2        1814            0.0000000000
      5443      1815  TIP3      OH2            19.2708328566       17.6919787879       -4.3874314987  W2        1815            0.0000000000
      5444      1815  TIP3      H1             19.3599428566       18.6357987879       -4.5197214987  W2        1815            0.0000000000
      5445      1815  TIP3      H2             18.6325928566       17.4166187879       -5.0454914987  W2        1815            0.0000000000
      5446      1816  TIP3      OH2            18.2039628566       16.9470487879       -0.9686114987  W2        1816            0.0000000000
      5447      1816  TIP3      H1             18.1657128566       16.3006787879       -0.2636514987  W2        1816            0.0000000000
      5448      1816  TIP3      H2             17.8816128566       16.4804887879       -1.7397414987  W2        1816            0.0000000000
      5449      1817  TIP3      OH2            10.5724628566       16.5612587879        0.6243785013  W2        1817            0.0000000000
      5450      1817  TIP3      H1             10.6136728566       15.9355887879        1.3476185013  W2        1817            0.0000000000
      5451      1817  TIP3      H2             11.2752328566       17.1851187879        0.8064185013  W2        1817            0.0000000000
      5452      1818  TIP3      OH2            21.9099828566       19.8860887879       -2.6671014987  W2        1818            0.0000000000
      5453      1818  TIP3      H1             21.4692528566       19.1656887879       -2.2165414987  W2        1818            0.0000000000
      5454      1818  TIP3      H2             21.8969528566       20.6068087879       -2.0373314987  W2        1818            0.0000000000
      5455      1819  TIP3      OH2            11.4957728566       21.0111487879       -0.8407114987  W2        1819            0.0000000000
      5456      1819  TIP3      H1             11.1262928566       20.2091987879       -1.2102814987  W2        1819            0.0000000000
      5457      1819  TIP3      H2             12.4368828566       20.8426387879       -0.7943714987  W2        1819            0.0000000000
      5458      1820  TIP3      OH2             8.1058228566       14.6714087879       -5.4478314987  W2        1820            0.0000000000
      5459      1820  TIP3      H1              7.6581628566       15.5172787879       -5.4661814987  W2        1820            0.0000000000
      5460      1820  TIP3      H2              7.5449428566       14.0918287879       -5.9633214987  W2        1820            0.0000000000
      5461      1821  TIP3      OH2             8.8164328566       16.8333687879       -3.3220314987  W2        1821            0.0000000000
      5462      1821  TIP3      H1              9.0297828566       16.0635287879       -2.7947314987  W2        1821            0.0000000000
      5463      1821  TIP3      H2              9.5541928566       16.9230387879       -3.9252714987  W2        1821            0.0000000000
      5464      1822  TIP3      OH2            19.0215328566       24.9902587879       -2.4550614987  W2        1822            0.0000000000
      5465      1822  TIP3      H1             19.6411728566       24.3137287879       -2.7281414987  W2        1822            0.0000000000
      5466      1822  TIP3      H2             18.8132728566       24.7723387879       -1.5465714987  W2        1822            0.0000000000
      5467      1823  TIP3      OH2            16.5934028566       19.3791887879       -0.5625114987  W2        1823            0.0000000000
      5468      1823  TIP3      H1             16.8971928566       18.6933287879       -1.1571014987  W2        1823            0.0000000000
      5469      1823  TIP3      H2             17.3148028566       19.4980587879        0.0552885013  W2        1823            0.0000000000
      5470      1824  TIP3      OH2            25.2563828566       10.9807187879        0.2981085013  W2        1824            0.0000000000
      5471      1824  TIP3      H1             25.3056028566       11.5908387879        1.0340185013  W2        1824            0.0000000000
      5472      1824  TIP3      H2             25.6818928566       11.4418087879       -0.4247814987  W2        1824            0.0000000000
      5473      1825  TIP3      OH2            19.7341028566       13.7734287879       -0.2350314987  W2        1825            0.0000000000
      5474      1825  TIP3      H1             19.8766928566       12.8271287879       -0.2148714987  W2        1825            0.0000000000
      5475      1825  TIP3      H2             19.6280028566       13.9804087879       -1.1635414987  W2        1825            0.0000000000
      5476      1826  TIP3      OH2            12.8889328566       11.8750687879       -2.9625514987  W2        1826            0.0000000000
      5477      1826  TIP3      H1             12.9320428566       12.7349187879       -3.3809214987  W2        1826            0.0000000000
      5478      1826  TIP3      H2             12.4313428566       11.3225387879       -3.5962314987  W2        1826            0.0000000000
      5479      1827  TIP3      OH2            20.6112028566       12.0056287879       -4.5617214987  W2        1827            0.0000000000
      5480      1827  TIP3      H1             21.2576328566       11.6769487879       -3.9369614987  W2        1827            0.0000000000
      5481      1827  TIP3      H2             21.1211428566       12.5235287879       -5.1845814987  W2        1827            0.0000000000
      5482      1828  TIP3      OH2             9.5090828566       14.2716487879       -2.2004114987  W2        1828            0.0000000000
      5483      1828  TIP3      H1             10.1627428566       13.7218187879       -1.7684014987  W2        1828            0.0000000000
      5484      1828  TIP3      H2              9.5330128566       13.9975487879       -3.1172114987  W2        1828            0.0000000000
      5485      1829  TIP3      OH2            14.6655328566       15.8217787879       -2.9852614987  W2        1829            0.0000000000
      5486      1829  TIP3      H1             15.2816328566       15.2953187879       -2.4758614987  W2        1829            0.0000000000
      5487      1829  TIP3      H2             14.0794128566       15.1816487879       -3.3889014987  W2        1829            0.0000000000
      5488      1830  TIP3      OH2            25.6478428566       12.4586387879        2.5340885013  W2        1830            0.0000000000
      5489      1830  TIP3      H1             24.9593028566       13.1167087879        2.4387485013  W2        1830            0.0000000000
      5490      1830  TIP3      H2             25.6633028566       12.2614287879        3.4706285013  W2        1830            0.0000000000
      5491      1831  TIP3      OH2            11.6991228566       10.7929087879        1.1115285013  W2        1831            0.0000000000
      5492      1831  TIP3      H1             11.4802928566       11.3229687879        0.3451285013  W2        1831            0.0000000000
      5493      1831  TIP3      H2             11.0312128566       11.0194587879        1.7586685013  W2        1831            0.0000000000
      5494      1832  TIP3      OH2            19.0681028566       20.2930187879       -5.3445614987  W2        1832            0.0000000000
      5495      1832  TIP3      H1             18.7726128566       19.9702487879       -6.1958714987  W2        1832            0.0000000000
      5496      1832  TIP3      H2             18.7438828566       21.1926887879       -5.3033014987  W2        1832            0.0000000000
      5497      1833  TIP3      OH2            14.2682628566       18.4684787879        1.3988985013  W2        1833            0.0000000000
      5498      1833  TIP3      H1             13.5281728566       19.0666287879        1.5024185013  W2        1833            0.0000000000
      5499      1833  TIP3      H2             14.9822128566       19.0224387879        1.0832585013  W2        1833            0.0000000000
      5500      1834  TIP3      OH2            22.3750428566       11.2965587879       -2.5811314987  W2        1834            0.0000000000
      5501      1834  TIP3      H1             22.1598428566       10.5308987879       -2.0485314987  W2        1834            0.0000000000
      5502      1834  TIP3      H2             23.0307828566       11.7690187879       -2.0682814987  W2        1834            0.0000000000
      5503      1835  TIP3      OH2            11.2928528566       12.6850887879       -0.9362514987  W2        1835            0.0000000000
      5504      1835  TIP3      H1             11.9064828566       13.3178487879       -0.5630114987  W2        1835            0.0000000000
      5505      1835  TIP3      H2             11.8049228566       12.2125887879       -1.5925614987  W2        1835            0.0000000000
      5506      1836  TIP3      OH2            12.6756928566       20.4327787879        2.1860485013  W2        1836            0.0000000000
      5507      1836  TIP3      H1             12.6704528566       21.3121287879        1.8079785013  W2        1836            0.0000000000
      5508      1836  TIP3      H2             11.8221028566       20.3491887879        2.6110385013  W2        1836            0.0000000000
      5509      1837  TIP3      OH2             8.7967828566       20.1035687879       -7.0320214987  W2        1837            0.0000000000
      5510      1837  TIP3      H1              8.5248728566       20.3326687879       -7.9207314987  W2        1837            0.0000000000
      5511      1837  TIP3      H2              8.8423528566       20.9414487879       -6.5714914987  W2        1837            0.0000000000
      5512      1838  TIP3      OH2            22.4217528566       21.7251587879       -0.3191714987  W2        1838            0.0000000000
      5513      1838  TIP3      H1             21.4801228566       21.7835487879       -0.1574814987  W2        1838            0.0000000000
      5514      1838  TIP3      H2             22.6983628566       22.6312087879       -0.4562014987  W2        1838            0.0000000000
      5515      1839  TIP3      OH2            22.7224528566       10.0116887879        1.0982185013  W2        1839            0.0000000000
      5516      1839  TIP3      H1             21.9863728566       10.6223987879        1.0603485013  W2        1839            0.0000000000
      5517      1839  TIP3      H2             23.4058528566       10.4265887879        0.5718585013  W2        1839            0.0000000000
      5518      1840  TIP3      OH2            15.7255928566        8.0984187879       -1.4359814987  W2        1840            0.0000000000
      5519      1840  TIP3      H1             15.6080128566        7.1500187879       -1.4901514987  W2        1840            0.0000000000
      5520      1840  TIP3      H2             14.8706028566        8.4310287879       -1.1628714987  W2        1840            0.0000000000
      5521      1841  TIP3      OH2            20.6738728566       23.5065087879       -3.6940114987  W2        1841            0.0000000000
      5522      1841  TIP3      H1             21.0991028566       22.7992987879       -4.1790514987  W2        1841            0.0000000000
      5523      1841  TIP3      H2             20.9908728566       24.3077787879       -4.1107914987  W2        1841            0.0000000000
      5524      1842  TIP3      OH2            21.8335228566       21.4073587879       -5.1853514987  W2        1842            0.0000000000
      5525      1842  TIP3      H1             21.5760028566       20.7173687879       -5.7967614987  W2        1842            0.0000000000
      5526      1842  TIP3      H2             21.9046028566       20.9644787879       -4.3397614987  W2        1842            0.0000000000
      5527      1843  TIP3      OH2            23.5195428566       19.9740287879        3.2919985013  W2        1843            0.0000000000
      5528      1843  TIP3      H1             23.6591728566       19.3822787879        2.5526985013  W2        1843            0.0000000000
      5529      1843  TIP3      H2             23.6868228566       20.8466187879        2.9358785013  W2        1843            0.0000000000
      5530      1844  TIP3      OH2            17.9920828566       16.9359787879       -6.9354014987  W2        1844            0.0000000000
      5531      1844  TIP3      H1             17.2806328566       17.4709487879       -7.2873514987  W2        1844            0.0000000000
      5532      1844  TIP3      H2             18.6830428566       16.9911887879       -7.5955114987  W2        1844            0.0000000000
      5533      1845  TIP3      OH2            18.0460028566       15.3934087879       -9.8969014987  W2        1845            0.0000000000
      5534      1845  TIP3      H1             18.7469928566       15.4160987879       -9.2455014987  W2        1845            0.0000000000
      5535      1845  TIP3      H2             18.3482928566       14.7653787879      -10.5529714987  W2        1845            0.0000000000
      5536      1846  TIP3      OH2            25.3614728566       16.3138287879        1.3580385013  W2        1846            0.0000000000
      5537      1846  TIP3      H1             24.7088828566       17.0083887879        1.4471285013  W2        1846            0.0000000000
      5538      1846  TIP3      H2             25.8265028566       16.5239187879        0.5481985013  W2        1846            0.0000000000
      5539      1847  TIP3      OH2            21.3978528566       17.1453087879       -5.9838114987  W2        1847            0.0000000000
      5540      1847  TIP3      H1             20.6659528566       17.3736787879       -5.4107514987  W2        1847            0.0000000000
      5541      1847  TIP3      H2             21.8450728566       16.4315787879       -5.5290614987  W2        1847            0.0000000000
      5542      1848  TIP3      OH2            21.2952028566       15.3195687879        3.0838885013  W2        1848            0.0000000000
      5543      1848  TIP3      H1             21.3751128566       16.0830087879        3.6557385013  W2        1848            0.0000000000
      5544      1848  TIP3      H2             20.6939728566       15.5988087879        2.3933985013  W2        1848            0.0000000000
      5545      1849  TIP3      OH2            13.0432228566       17.7759287879       -4.1013114987  W2        1849            0.0000000000
      5546      1849  TIP3      H1             12.7127428566       17.4052687879       -4.9196114987  W2        1849            0.0000000000
      5547      1849  TIP3      H2             13.6316328566       17.1053287879       -3.7544814987  W2        1849            0.0000000000
      5548      1850  TIP3      OH2            14.4099728566       21.2039887879       -1.4200914987  W2        1850            0.0000000000
      5549      1850  TIP3      H1             14.3151028566       20.6252987879       -2.1766314987  W2        1850            0.0000000000
      5550      1850  TIP3      H2             15.1393328566       20.8325587879       -0.9238114987  W2        1850            0.0000000000
      5551      1851  TIP3      OH2            13.4097728566       16.5444887879       -0.4678114987  W2        1851            0.0000000000
      5552      1851  TIP3      H1             13.9750228566       16.6659087879       -1.2306914987  W2        1851            0.0000000000
      5553      1851  TIP3      H2             13.7286628566       17.1819887879        0.1710385013  W2        1851            0.0000000000
      5554      1852  TIP3      OH2            19.7189928566       22.0476787879        0.2662385013  W2        1852            0.0000000000
      5555      1852  TIP3      H1             19.4786528566       22.7099887879        0.9141585013  W2        1852            0.0000000000
      5556      1852  TIP3      H2             19.5208128566       21.2131987879        0.6911985013  W2        1852            0.0000000000
      5557      1853  TIP3      OH2            14.2898428566       20.9437587879        4.2493785013  W2        1853            0.0000000000
      5558      1853  TIP3      H1             13.9785928566       21.7260787879        4.7046985013  W2        1853            0.0000000000
      5559      1853  TIP3      H2             13.6398628566       20.7906687879        3.5635785013  W2        1853            0.0000000000
      5560      1854  TIP3      OH2            20.2688028566       16.3075987879       -8.2986914987  W2        1854            0.0000000000
      5561      1854  TIP3      H1             20.8483528566       16.4576287879       -7.5518014987  W2        1854            0.0000000000
      5562      1854  TIP3      H2             20.6828028566       16.7783387879       -9.0220514987  W2        1854            0.0000000000
      5563      1855  TIP3      OH2            11.2098328566       17.1418687879        3.4779485013  W2        1855            0.0000000000
      5564      1855  TIP3      H1             11.2801528566       17.7925487879        4.1764485013  W2        1855            0.0000000000
      5565      1855  TIP3      H2             10.3190528566       17.2446187879        3.1430385013  W2        1855            0.0000000000
      5566      1856  TIP3      OH2            17.9952928566       23.0444487879       -4.8633814987  W2        1856            0.0000000000
      5567      1856  TIP3      H1             18.4690528566       23.3400787879       -4.0859614987  W2        1856            0.0000000000
      5568      1856  TIP3      H2             17.4322228566       23.7826087879       -5.0964214987  W2        1856            0.0000000000
      5569      1857  TIP3      OH2            12.5294328566       23.0152587879        5.0127585013  W2        1857            0.0000000000
      5570      1857  TIP3      H1             12.5369628566       22.8792287879        4.0653085013  W2        1857            0.0000000000
      5571      1857  TIP3      H2             11.6134728566       22.8980687879        5.2647585013  W2        1857            0.0000000000
      5572      1858  TIP3      OH2            23.9676428566        8.0576387879       -8.4857214987  W2        1858            0.0000000000
      5573      1858  TIP3      H1             23.0677128566        8.1965387879       -8.1906614987  W2        1858            0.0000000000
      5574      1858  TIP3      H2             24.2194828566        8.8890987879       -8.8875514987  W2        1858            0.0000000000
      5575      1859  TIP3      OH2            12.0334928566       16.8453587879       -6.5120314987  W2        1859            0.0000000000
      5576      1859  TIP3      H1             11.7416228566       17.6135287879       -7.0029014987  W2        1859            0.0000000000
      5577      1859  TIP3      H2             11.3590128566       16.1859787879       -6.6748914987  W2        1859            0.0000000000
      5578      1860  TIP3      OH2            25.1567828566       22.4238787879      -10.1093314987  W2        1860            0.0000000000
      5579      1860  TIP3      H1             25.2301328566       23.3628987879       -9.9388014987  W2        1860            0.0000000000
      5580      1860  TIP3      H2             26.0622928566       22.1187387879      -10.1656014987  W2        1860            0.0000000000
      5581      1861  TIP3      OH2             8.1265028566       19.2082787879        2.3029485013  W2        1861            0.0000000000
      5582      1861  TIP3      H1              7.6253428566       19.1802187879        1.4879185013  W2        1861            0.0000000000
      5583      1861  TIP3      H2              8.1318728566       18.3025987879        2.6126785013  W2        1861            0.0000000000
      5584      1862  TIP3      OH2             7.8767728566       21.9886587879       -0.8130314987  W2        1862            0.0000000000
      5585      1862  TIP3      H1              8.8228328566       21.8443587879       -0.8320814987  W2        1862            0.0000000000
      5586      1862  TIP3      H2              7.7644028566       22.7729387879       -0.2759114987  W2        1862            0.0000000000
      5587      1863  TIP3      OH2            26.0746228566       22.6546287879        4.8693385013  W2        1863            0.0000000000
      5588      1863  TIP3      H1             26.0253028566       21.6994387879        4.8320985013  W2        1863            0.0000000000
      5589      1863  TIP3      H2             25.2478528566       22.9221587879        5.2707185013  W2        1863            0.0000000000
      5590      1864  TIP3      OH2            17.0530228566       22.2285487879        3.7454785013  W2        1864            0.0000000000
      5591      1864  TIP3      H1             17.1404828566       23.0550087879        4.2203885013  W2        1864            0.0000000000
      5592      1864  TIP3      H2             16.1895328566       21.8989287879        3.9944085013  W2        1864            0.0000000000
      5593      1865  TIP3      OH2            17.4676028566       26.0009187879       -6.4484614987  W2        1865            0.0000000000
      5594      1865  TIP3      H1             17.3922028566       25.8796387879       -7.3949414987  W2        1865            0.0000000000
      5595      1865  TIP3      H2             17.5004728566       26.9501887879       -6.3300014987  W2        1865            0.0000000000
      5596      1866  TIP3      OH2            11.1209828566       24.7896187879       -4.6675614987  W2        1866            0.0000000000
      5597      1866  TIP3      H1             11.2730228566       24.4416587879       -3.7889114987  W2        1866            0.0000000000
      5598      1866  TIP3      H2             10.2700228566       24.4333487879       -4.9228414987  W2        1866            0.0000000000
      5599      1867  TIP3      OH2            20.5692028566       25.1549387879       -9.4462214987  W2        1867            0.0000000000
      5600      1867  TIP3      H1             20.9440428566       24.4105487879       -9.9169614987  W2        1867            0.0000000000
      5601      1867  TIP3      H2             20.5735728566       24.8849987879       -8.5278914987  W2        1867            0.0000000000
      5602      1868  TIP3      OH2            20.2380128566       25.0806487879       -6.6970014987  W2        1868            0.0000000000
      5603      1868  TIP3      H1             19.3029928566       25.1808387879       -6.5183014987  W2        1868            0.0000000000
      5604      1868  TIP3      H2             20.5182028566       24.3712487879       -6.1186814987  W2        1868            0.0000000000
      5605      1869  TIP3      OH2            23.2266028566       14.1478787879        5.3495585013  W2        1869            0.0000000000
      5606      1869  TIP3      H1             22.8192828566       14.6284387879        4.6288885013  W2        1869            0.0000000000
      5607      1869  TIP3      H2             23.2671728566       13.2424787879        5.0416385013  W2        1869            0.0000000000
      5608      1870  TIP3      OH2            10.3755528566       20.5318187879        3.3462285013  W2        1870            0.0000000000
      5609      1870  TIP3      H1             10.5916828566       20.1703787879        4.2058085013  W2        1870            0.0000000000
      5610      1870  TIP3      H2              9.5200228566       20.1571987879        3.1365785013  W2        1870            0.0000000000
      5611      1871  TIP3      OH2            12.9943528566        9.0018687879       -0.6583514987  W2        1871            0.0000000000
      5612      1871  TIP3      H1             12.1327228566        8.9146887879       -1.0660614987  W2        1871            0.0000000000
      5613      1871  TIP3      H2             12.9719228566        9.8578787879       -0.2305914987  W2        1871            0.0000000000
      5614      1872  TIP3      OH2            17.6571328566        8.7239087879        2.7163485013  W2        1872            0.0000000000
      5615      1872  TIP3      H1             18.0774428566        8.3086187879        3.4694085013  W2        1872            0.0000000000
      5616      1872  TIP3      H2             16.7240928566        8.5452387879        2.8335485013  W2        1872            0.0000000000
      5617      1873  TIP3      OH2            20.9836228566       12.4794287879        3.5697985013  W2        1873            0.0000000000
      5618      1873  TIP3      H1             20.4695728566       12.3536487879        4.3673985013  W2        1873            0.0000000000
      5619      1873  TIP3      H2             20.8280928566       13.3917387879        3.3254185013  W2        1873            0.0000000000
      5620      1874  TIP3      OH2            21.7461128566       17.3404287879      -10.6689014987  W2        1874            0.0000000000
      5621      1874  TIP3      H1             21.7881928566       17.1178187879      -11.5989014987  W2        1874            0.0000000000
      5622      1874  TIP3      H2             22.5953228566       17.7391387879      -10.4789114987  W2        1874            0.0000000000
      5623      1875  TIP3      OH2            17.3188628566       11.2162487879       -9.9985714987  W2        1875            0.0000000000
      5624      1875  TIP3      H1             17.0653428566       11.2354087879       -9.0757614987  W2        1875            0.0000000000
      5625      1875  TIP3      H2             17.0620728566       10.3447887879      -10.2999514987  W2        1875            0.0000000000
      5626      1876  TIP3      OH2            13.0853628566       13.9673187879        0.4366685013  W2        1876            0.0000000000
      5627      1876  TIP3      H1             12.4435728566       13.9270487879        1.1456785013  W2        1876            0.0000000000
      5628      1876  TIP3      H2             13.1225628566       14.8937887879        0.1989685013  W2        1876            0.0000000000
      5629      1877  TIP3      OH2            13.0822728566       14.1883287879       -4.6513314987  W2        1877            0.0000000000
      5630      1877  TIP3      H1             12.1895628566       13.8479387879       -4.7099514987  W2        1877            0.0000000000
      5631      1877  TIP3      H2             13.5329328566       13.8114187879       -5.4070114987  W2        1877            0.0000000000
      5632      1878  TIP3      OH2            18.6178228566       14.6043587879       -5.8342514987  W2        1878            0.0000000000
      5633      1878  TIP3      H1             18.2088528566       15.4192187879       -6.1257714987  W2        1878            0.0000000000
      5634      1878  TIP3      H2             19.3384428566       14.4643687879       -6.4485414987  W2        1878            0.0000000000
      5635      1879  TIP3      OH2            17.7199828566       14.7799987879        5.6538185013  W2        1879            0.0000000000
      5636      1879  TIP3      H1             17.1573628566       14.0751587879        5.9745985013  W2        1879            0.0000000000
      5637      1879  TIP3      H2             18.5463228566       14.6591887879        6.1215785013  W2        1879            0.0000000000
      5638      1880  TIP3      OH2            19.6225928566       14.0503987879       -3.0202814987  W2        1880            0.0000000000
      5639      1880  TIP3      H1             19.4270428566       14.6560787879       -3.7352214987  W2        1880            0.0000000000
      5640      1880  TIP3      H2             19.8038528566       13.2169187879       -3.4546514987  W2        1880            0.0000000000
      5641      1881  TIP3      OH2            10.8354128566       14.2876687879        2.3038685013  W2        1881            0.0000000000
      5642      1881  TIP3      H1             10.7973528566       14.6878287879        3.1725785013  W2        1881            0.0000000000
      5643      1881  TIP3      H2             10.3445228566       13.4709087879        2.3941585013  W2        1881            0.0000000000
      5644      1882  TIP3      OH2            14.2011528566       11.6618987879      -10.8975314987  W2        1882            0.0000000000
      5645      1882  TIP3      H1             13.7702228566       11.2169087879      -10.1677914987  W2        1882            0.0000000000
      5646      1882  TIP3      H2             13.4830228566       12.0335287879      -11.4097814987  W2        1882            0.0000000000
      5647      1883  TIP3      OH2             7.4434928566       11.4038487879       -3.8456614987  W2        1883            0.0000000000
      5648      1883  TIP3      H1              8.0742628566       11.3750587879       -3.1262714987  W2        1883            0.0000000000
      5649      1883  TIP3      H2              7.8929228566       10.9787187879       -4.5760714987  W2        1883            0.0000000000
      5650      1884  TIP3      OH2             8.7177028566       12.1500487879       -8.4216214987  W2        1884            0.0000000000
      5651      1884  TIP3      H1              9.1918728566       12.7410387879       -9.0065314987  W2        1884            0.0000000000
      5652      1884  TIP3      H2              8.0003428566       12.6803387879       -8.0746114987  W2        1884            0.0000000000
      5653      1885  TIP3      OH2            18.8865128566       15.6885287879        1.6509585013  W2        1885            0.0000000000
      5654      1885  TIP3      H1             19.2099928566       15.0574987879        1.0080085013  W2        1885            0.0000000000
      5655      1885  TIP3      H2             18.4464428566       15.1537487879        2.3116985013  W2        1885            0.0000000000
      5656      1886  TIP3      OH2            15.6638028566       11.6160787879       -3.5649214987  W2        1886            0.0000000000
      5657      1886  TIP3      H1             14.7529128566       11.6727587879       -3.2763214987  W2        1886            0.0000000000
      5658      1886  TIP3      H2             16.1690928566       11.5556287879       -2.7542014987  W2        1886            0.0000000000
      5659      1887  TIP3      OH2            10.4921428566       13.2447087879       -4.7381614987  W2        1887            0.0000000000
      5660      1887  TIP3      H1              9.6029428566       13.3442587879       -5.0782014987  W2        1887            0.0000000000
      5661      1887  TIP3      H2             10.7886328566       12.4030087879       -5.0843714987  W2        1887            0.0000000000
      5662      1888  TIP3      OH2            14.1453228566       13.2449687879       -7.0817014987  W2        1888            0.0000000000
      5663      1888  TIP3      H1             15.0768728566       13.3739687879       -6.9033914987  W2        1888            0.0000000000
      5664      1888  TIP3      H2             13.9303528566       13.9143987879       -7.7312314987  W2        1888            0.0000000000
      5665      1889  TIP3      OH2            20.0689928566       10.8507087879       -0.3007414987  W2        1889            0.0000000000
      5666      1889  TIP3      H1             19.3921528566       10.9820187879        0.3632285013  W2        1889            0.0000000000
      5667      1889  TIP3      H2             19.5834828566       10.6956587879       -1.1109714987  W2        1889            0.0000000000
      5668      1890  TIP3      OH2            12.8193428566       14.4391887879       -9.5150914987  W2        1890            0.0000000000
      5669      1890  TIP3      H1             12.2768528566       14.0595687879      -10.2063314987  W2        1890            0.0000000000
      5670      1890  TIP3      H2             13.6528328566       14.6336587879       -9.9436814987  W2        1890            0.0000000000
      5671      1891  TIP3      OH2            23.3565028566       26.5222487879        5.9760185013  W2        1891            0.0000000000
      5672      1891  TIP3      H1             23.5563728566       26.9464387879        5.1415485013  W2        1891            0.0000000000
      5673      1891  TIP3      H2             24.0118728566       26.8660687879        6.5830585013  W2        1891            0.0000000000
      5674      1892  TIP3      OH2            10.9544828566       18.9963787879        5.5840685013  W2        1892            0.0000000000
      5675      1892  TIP3      H1             11.6867228566       19.2509687879        6.1455185013  W2        1892            0.0000000000
      5676      1892  TIP3      H2             10.1743528566       19.2009187879        6.0996085013  W2        1892            0.0000000000
      5677      1893  TIP3      OH2            16.9837728566       14.4033787879       -1.6779614987  W2        1893            0.0000000000
      5678      1893  TIP3      H1             17.5481128566       13.8570387879       -2.2250014987  W2        1893            0.0000000000
      5679      1893  TIP3      H2             16.8361128566       13.8815687879       -0.8892014987  W2        1893            0.0000000000
      5680      1894  TIP3      OH2            11.9857428566       10.5399887879       -5.2594814987  W2        1894            0.0000000000
      5681      1894  TIP3      H1             11.6686928566        9.6375187879       -5.2949414987  W2        1894            0.0000000000
      5682      1894  TIP3      H2             12.7671528566       10.5417287879       -5.8123214987  W2        1894            0.0000000000
      5683      1895  TIP3      OH2            15.6103628566       12.7919887879        0.7360785013  W2        1895            0.0000000000
      5684      1895  TIP3      H1             14.7748928566       13.2459387879        0.8463185013  W2        1895            0.0000000000
      5685      1895  TIP3      H2             16.1344228566       13.0678387879        1.4880685013  W2        1895            0.0000000000
      5686      1896  TIP3      OH2            16.1546228566       19.0047587879       -7.5792814987  W2        1896            0.0000000000
      5687      1896  TIP3      H1             15.4097228566       18.4972887879       -7.9014914987  W2        1896            0.0000000000
      5688      1896  TIP3      H2             16.0203428566       19.0535587879       -6.6328014987  W2        1896            0.0000000000
      5689      1897  TIP3      OH2            23.3045128566       18.1375787879        1.2074785013  W2        1897            0.0000000000
      5690      1897  TIP3      H1             23.9463928566       18.5942087879        0.6636985013  W2        1897            0.0000000000
      5691      1897  TIP3      H2             22.4742028566       18.2508187879        0.7448885013  W2        1897            0.0000000000
      5692      1898  TIP3      OH2            20.0523028566       11.8187487879       -9.3800214987  W2        1898            0.0000000000
      5693      1898  TIP3      H1             19.1137228566       11.9303087879       -9.5311414987  W2        1898            0.0000000000
      5694      1898  TIP3      H2             20.3495128566       12.6754387879       -9.0734514987  W2        1898            0.0000000000
      5695      1899  TIP3      OH2            17.6738328566       19.1890887879        3.6576285013  W2        1899            0.0000000000
      5696      1899  TIP3      H1             17.3284428566       18.8073287879        4.4645885013  W2        1899            0.0000000000
      5697      1899  TIP3      H2             17.4738428566       20.1224487879        3.7289185013  W2        1899            0.0000000000
      5698      1900  TIP3      OH2            20.7706528566       13.6860187879       -7.7192814987  W2        1900            0.0000000000
      5699      1900  TIP3      H1             21.6625528566       13.5485187879       -7.4001614987  W2        1900            0.0000000000
      5700      1900  TIP3      H2             20.8270128566       14.4766287879       -8.2559314987  W2        1900            0.0000000000
      5701      1901  TIP3      OH2            11.2794528566       18.2997587879       -1.8094914987  W2        1901            0.0000000000
      5702      1901  TIP3      H1             12.0241728566       18.2973287879       -2.4108414987  W2        1901            0.0000000000
      5703      1901  TIP3      H2             11.3571128566       17.4761387879       -1.3279814987  W2        1901            0.0000000000
      5704      1902  TIP3      OH2            18.2800328566       20.4631887879       -8.5538214987  W2        1902            0.0000000000
      5705      1902  TIP3      H1             17.9848728566       21.2899787879       -8.1723414987  W2        1902            0.0000000000
      5706      1902  TIP3      H2             17.5770328566       19.8438787879       -8.3576814987  W2        1902            0.0000000000
      5707      1903  TIP3      OH2             8.2874228566       16.7604487879        3.5053585013  W2        1903            0.0000000000
      5708      1903  TIP3      H1              8.5102828566       16.3424087879        4.3371085013  W2        1903            0.0000000000
      5709      1903  TIP3      H2              7.6854328566       16.1479487879        3.0826385013  W2        1903            0.0000000000
      5710      1904  TIP3      OH2            15.3039128566       16.2774387879        5.7183285013  W2        1904            0.0000000000
      5711      1904  TIP3      H1             15.0079928566       16.1117387879        4.8232385013  W2        1904            0.0000000000
      5712      1904  TIP3      H2             16.2354328566       16.0574687879        5.7077185013  W2        1904            0.0000000000
      5713      1905  TIP3      OH2            19.9241928566       21.6506387879        3.6081285013  W2        1905            0.0000000000
      5714      1905  TIP3      H1             19.0236228566       21.8338987879        3.3405185013  W2        1905            0.0000000000
      5715      1905  TIP3      H2             19.9583028566       21.9095687879        4.5290085013  W2        1905            0.0000000000
      5716      1906  TIP3      OH2            25.6555228566       13.8954287879       -8.0246114987  W2        1906            0.0000000000
      5717      1906  TIP3      H1             25.1011528566       13.4992287879       -8.6968614987  W2        1906            0.0000000000
      5718      1906  TIP3      H2             25.7558828566       14.8059487879       -8.3022814987  W2        1906            0.0000000000
      5719      1907  TIP3      OH2            25.6187228566       19.6955987879        4.8125385013  W2        1907            0.0000000000
      5720      1907  TIP3      H1             24.7675728566       19.9339787879        4.4451785013  W2        1907            0.0000000000
      5721      1907  TIP3      H2             26.2090628566       19.6789187879        4.0592485013  W2        1907            0.0000000000
      5722      1908  TIP3      OH2            23.9506928566       22.6814687879       -7.5594014987  W2        1908            0.0000000000
      5723      1908  TIP3      H1             23.5778028566       21.8558487879       -7.2503414987  W2        1908            0.0000000000
      5724      1908  TIP3      H2             24.2280428566       22.4984087879       -8.4570614987  W2        1908            0.0000000000
      5725      1909  TIP3      OH2            21.1110828566       17.4894187879       -0.5382114987  W2        1909            0.0000000000
      5726      1909  TIP3      H1             20.1827728566       17.2576087879       -0.5652814987  W2        1909            0.0000000000
      5727      1909  TIP3      H2             21.5621928566       16.7123987879       -0.8683314987  W2        1909            0.0000000000
      5728      1910  TIP3      OH2            13.6543928566       21.8175787879       -4.4053414987  W2        1910            0.0000000000
      5729      1910  TIP3      H1             14.1816128566       22.5910187879       -4.6054614987  W2        1910            0.0000000000
      5730      1910  TIP3      H2             12.7742428566       22.0424987879       -4.7069414987  W2        1910            0.0000000000
      5731      1911  TIP3      OH2             9.4091628566       16.6799887879       -9.8181014987  W2        1911            0.0000000000
      5732      1911  TIP3      H1             10.0251528566       17.3067087879       -9.4386214987  W2        1911            0.0000000000
      5733      1911  TIP3      H2              8.5474228566       16.9959687879       -9.5464514987  W2        1911            0.0000000000
      5734      1912  TIP3      OH2            15.0816228566       19.4805687879       -4.8289114987  W2        1912            0.0000000000
      5735      1912  TIP3      H1             14.8406228566       20.4060087879       -4.7873814987  W2        1912            0.0000000000
      5736      1912  TIP3      H2             14.3409828566       19.0216987879       -4.4325214987  W2        1912            0.0000000000
      5737      1913  TIP3      OH2            15.5962828566       23.6299287879        1.4861985013  W2        1913            0.0000000000
      5738      1913  TIP3      H1             15.9587528566       24.4844887879        1.2526385013  W2        1913            0.0000000000
      5739      1913  TIP3      H2             16.1278028566       23.3380887879        2.2268285013  W2        1913            0.0000000000
      5740      1914  TIP3      OH2            13.7647028566       24.5023287879       -5.2836914987  W2        1914            0.0000000000
      5741      1914  TIP3      H1             12.8147528566       24.6080687879       -5.2323614987  W2        1914            0.0000000000
      5742      1914  TIP3      H2             14.1165128566       25.3230687879       -4.9389414987  W2        1914            0.0000000000
      5743      1915  TIP3      OH2            19.1403628566       19.7289987879        1.1867585013  W2        1915            0.0000000000
      5744      1915  TIP3      H1             18.7144928566       19.5011687879        2.0131585013  W2        1915            0.0000000000
      5745      1915  TIP3      H2             19.7209428566       18.9901787879        1.0042885013  W2        1915            0.0000000000
      5746      1916  TIP3      OH2            21.3432528566       20.6580487879       -9.7393414987  W2        1916            0.0000000000
      5747      1916  TIP3      H1             21.6965628566       20.2780287879       -8.9349914987  W2        1916            0.0000000000
      5748      1916  TIP3      H2             20.3946028566       20.5645287879       -9.6524114987  W2        1916            0.0000000000
      5749      1917  TIP3      OH2            21.7987828566       24.2809487879        3.6562385013  W2        1917            0.0000000000
      5750      1917  TIP3      H1             21.1971028566       23.7252387879        3.1608685013  W2        1917            0.0000000000
      5751      1917  TIP3      H2             22.0801528566       24.9479287879        3.0299785013  W2        1917            0.0000000000
      5752      1918  TIP3      OH2            25.8466928566       25.1372987879       -9.5383214987  W2        1918            0.0000000000
      5753      1918  TIP3      H1             26.5904828566       25.7233487879       -9.6781614987  W2        1918            0.0000000000
      5754      1918  TIP3      H2             25.1525028566       25.7058787879       -9.2050814987  W2        1918            0.0000000000
      5755      1919  TIP3      OH2             9.9213728566       11.5137187879        3.0634985013  W2        1919            0.0000000000
      5756      1919  TIP3      H1              9.0286028566       11.8522587879        2.9958985013  W2        1919            0.0000000000
      5757      1919  TIP3      H2              9.8226528566       10.6583287879        3.4815785013  W2        1919            0.0000000000
      5758      1920  TIP3      OH2            22.2091828566       19.3302487879       -7.5125514987  W2        1920            0.0000000000
      5759      1920  TIP3      H1             21.9319428566       18.6021787879       -6.9564414987  W2        1920            0.0000000000
      5760      1920  TIP3      H2             23.1364828566       19.4494487879       -7.3072914987  W2        1920            0.0000000000
      5761      1921  TIP3      OH2             9.5725728566       23.3181587879        1.4984385013  W2        1921            0.0000000000
      5762      1921  TIP3      H1              9.7896028566       22.3863987879        1.4674085013  W2        1921            0.0000000000
      5763      1921  TIP3      H2              9.8189228566       23.5926587879        2.3817185013  W2        1921            0.0000000000
      5764      1922  TIP3      OH2            15.4340328566       21.7696587879      -11.2923414987  W2        1922            0.0000000000
      5765      1922  TIP3      H1             15.6730128566       21.0214687879      -11.8394514987  W2        1922            0.0000000000
      5766      1922  TIP3      H2             15.1651628566       21.3818287879      -10.4595614987  W2        1922            0.0000000000
      5767      1923  TIP3      OH2            14.3710928566       21.3400387879       -8.8360814987  W2        1923            0.0000000000
      5768      1923  TIP3      H1             14.5178928566       20.8200187879       -8.0459914987  W2        1923            0.0000000000
      5769      1923  TIP3      H2             14.3682628566       22.2467987879       -8.5294914987  W2        1923            0.0000000000
      5770      1924  TIP3      OH2            10.8242028566       18.5923687879       -8.3255414987  W2        1924            0.0000000000
      5771      1924  TIP3      H1             10.1381328566       18.9446187879       -7.7585714987  W2        1924            0.0000000000
      5772      1924  TIP3      H2             11.3469928566       19.3553287879       -8.5721114987  W2        1924            0.0000000000
      5773      1925  TIP3      OH2            18.6557128566       11.2547487879        1.9533585013  W2        1925            0.0000000000
      5774      1925  TIP3      H1             19.3545028566       11.3286187879        2.6033285013  W2        1925            0.0000000000
      5775      1925  TIP3      H2             18.2748528566       10.3902487879        2.1076485013  W2        1925            0.0000000000
      5776      1926  TIP3      OH2            19.4402028566       10.9069187879       -6.9494114987  W2        1926            0.0000000000
      5777      1926  TIP3      H1             19.6600328566       11.3784587879       -7.7528714987  W2        1926            0.0000000000
      5778      1926  TIP3      H2             19.9986028566       11.3011787879       -6.2793514987  W2        1926            0.0000000000
      5779      1927  TIP3      OH2            17.1088128566       23.0373987879       -8.0866614987  W2        1927            0.0000000000
      5780      1927  TIP3      H1             16.2924228566       23.5343687879       -8.0342314987  W2        1927            0.0000000000
      5781      1927  TIP3      H2             17.6384428566       23.5127487879       -8.7267814987  W2        1927            0.0000000000
      5782      1928  TIP3      OH2            16.6401928566       12.6347987879       -6.1145714987  W2        1928            0.0000000000
      5783      1928  TIP3      H1             17.4524528566       13.1391187879       -6.0684014987  W2        1928            0.0000000000
      5784      1928  TIP3      H2             16.3954928566       12.4897687879       -5.2006114987  W2        1928            0.0000000000
      5785      1929  TIP3      OH2            17.1758328566       13.6210687879        3.0700885013  W2        1929            0.0000000000
      5786      1929  TIP3      H1             17.2948628566       14.1946087879        3.8271285013  W2        1929            0.0000000000
      5787      1929  TIP3      H2             17.8312928566       12.9330087879        3.1848685013  W2        1929            0.0000000000
      5788      1930  TIP3      OH2            17.5238628566        9.7160987879       -5.1764614987  W2        1930            0.0000000000
      5789      1930  TIP3      H1             17.1772128566       10.3331587879       -4.5320314987  W2        1930            0.0000000000
      5790      1930  TIP3      H2             18.1825528566       10.2166687879       -5.6579114987  W2        1930            0.0000000000
      5791      1931  TIP3      OH2            14.4471228566       24.0811187879       -8.1049714987  W2        1931            0.0000000000
      5792      1931  TIP3      H1             14.6079928566       24.8808687879       -8.6057114987  W2        1931            0.0000000000
      5793      1931  TIP3      H2             14.2499028566       24.3877187879       -7.2199114987  W2        1931            0.0000000000
      5794      1932  TIP3      OH2            13.1815628566       10.7790387879       -8.4892114987  W2        1932            0.0000000000
      5795      1932  TIP3      H1             13.0980428566       11.6673487879       -8.1425714987  W2        1932            0.0000000000
      5796      1932  TIP3      H2             14.0715928566       10.5137087879       -8.2575314987  W2        1932            0.0000000000
      5797      1933  TIP3      OH2            23.3804128566       11.5280987879        3.9050585013  W2        1933            0.0000000000
      5798      1933  TIP3      H1             22.4639928566       11.7902687879        3.8174285013  W2        1933            0.0000000000
      5799      1933  TIP3      H2             23.7159128566       11.5249987879        3.0085885013  W2        1933            0.0000000000
      5800      1934  TIP3      OH2            21.9825128566       15.2781987879       -1.9992114987  W2        1934            0.0000000000
      5801      1934  TIP3      H1             21.1849528566       14.8632187879       -2.3277114987  W2        1934            0.0000000000
      5802      1934  TIP3      H2             22.4276228566       14.5875687879       -1.5081614987  W2        1934            0.0000000000
      5803      1935  TIP3      OH2            11.4400928566       21.2062587879       -9.4287614987  W2        1935            0.0000000000
      5804      1935  TIP3      H1             12.0322428566       21.9057387879       -9.1525214987  W2        1935            0.0000000000
      5805      1935  TIP3      H2             11.8993928566       20.7732087879      -10.1483014987  W2        1935            0.0000000000
      5806      1936  TIP3      OH2             9.7560128566       13.8705587879      -10.3128214987  W2        1936            0.0000000000
      5807      1936  TIP3      H1              9.7112728566       14.8098687879      -10.1341214987  W2        1936            0.0000000000
      5808      1936  TIP3      H2              8.8683328566       13.6350487879      -10.5826114987  W2        1936            0.0000000000
      5809      1937  TIP3      OH2            23.0689728566       24.5344487879       -0.3768614987  W2        1937            0.0000000000
      5810      1937  TIP3      H1             22.9134028566       25.2128887879       -1.0339314987  W2        1937            0.0000000000
      5811      1937  TIP3      H2             24.0016128566       24.6063787879       -0.1738014987  W2        1937            0.0000000000
      5812      1938  TIP3      OH2            10.5642128566        8.6522187879       -1.6397214987  W2        1938            0.0000000000
      5813      1938  TIP3      H1             10.3351928566        8.7114687879       -2.5672214987  W2        1938            0.0000000000
      5814      1938  TIP3      H2             10.1215528566        7.8607687879       -1.3333114987  W2        1938            0.0000000000
      5815      1939  TIP3      OH2             9.4945428566       22.5929287879       -5.4791414987  W2        1939            0.0000000000
      5816      1939  TIP3      H1              8.6624028566       23.0651987879       -5.4520014987  W2        1939            0.0000000000
      5817      1939  TIP3      H2             10.0403728566       23.1026887879       -6.0778314987  W2        1939            0.0000000000
      5818      1940  TIP3      OH2             8.7829128566       25.2052987879        5.8506585013  W2        1940            0.0000000000
      5819      1940  TIP3      H1              9.3231328566       24.9886987879        6.6105785013  W2        1940            0.0000000000
      5820      1940  TIP3      H2              8.3017128566       24.3998987879        5.6609085013  W2        1940            0.0000000000
      5821      1941  TIP3      OH2            13.3802528566       24.1247387879        7.4710785013  W2        1941            0.0000000000
      5822      1941  TIP3      H1             14.1479728566       23.6658187879        7.8119985013  W2        1941            0.0000000000
      5823      1941  TIP3      H2             13.3588728566       23.8987187879        6.5411985013  W2        1941            0.0000000000
      5824      1942  TIP3      OH2            17.4722128566       23.6327987879      -11.1537414987  W2        1942            0.0000000000
      5825      1942  TIP3      H1             16.8283128566       23.0016587879      -10.8323714987  W2        1942            0.0000000000
      5826      1942  TIP3      H2             18.2340428566       23.1015987879      -11.3853914987  W2        1942            0.0000000000
      5827      1943  TIP3      OH2            19.9571228566       22.5048487879        6.2002285013  W2        1943            0.0000000000
      5828      1943  TIP3      H1             19.6060728566       21.6481487879        6.4432685013  W2        1943            0.0000000000
      5829      1943  TIP3      H2             20.6834428566       22.6475187879        6.8071285013  W2        1943            0.0000000000
      5830      1944  TIP3      OH2            22.0765028566       23.4497887879      -10.9199414987  W2        1944            0.0000000000
      5831      1944  TIP3      H1             22.3595428566       22.6553087879      -10.4672514987  W2        1944            0.0000000000
      5832      1944  TIP3      H2             22.8162928566       23.6828887879      -11.4808314987  W2        1944            0.0000000000
      5833      1945  TIP3      OH2             8.6898628566       19.0157087879        6.8050885013  W2        1945            0.0000000000
      5834      1945  TIP3      H1              8.8339128566       18.1137787879        6.5187585013  W2        1945            0.0000000000
      5835      1945  TIP3      H2              7.9176028566       19.3019187879        6.3173185013  W2        1945            0.0000000000
      5836      1946  TIP3      OH2            13.0312328566       19.3592787879      -11.0624514987  W2        1946            0.0000000000
      5837      1946  TIP3      H1             13.0956428566       18.5652387879      -10.5318114987  W2        1946            0.0000000000
      5838      1946  TIP3      H2             13.6841528566       19.2405587879      -11.7522514987  W2        1946            0.0000000000
      5839      1947  TIP3      OH2            15.3454728566       18.9855187879        6.2377285013  W2        1947            0.0000000000
      5840      1947  TIP3      H1             15.0168528566       19.2563287879        5.3804685013  W2        1947            0.0000000000
      5841      1947  TIP3      H2             15.4972928566       18.0444987879        6.1502285013  W2        1947            0.0000000000
      5842      1948  TIP3      OH2            18.3835728566       20.4064487879      -11.3266514987  W2        1948            0.0000000000
      5843      1948  TIP3      H1             18.1149828566       20.5866587879      -10.4257614987  W2        1948            0.0000000000
      5844      1948  TIP3      H2             18.1771328566       19.4810687879      -11.4580714987  W2        1948            0.0000000000
      5845      1949  TIP3      OH2            21.0799928566       18.9012487879        3.6209585013  W2        1949            0.0000000000
      5846      1949  TIP3      H1             21.8254728566       19.4896187879        3.5013585013  W2        1949            0.0000000000
      5847      1949  TIP3      H2             20.3226728566       19.4832187879        3.6842685013  W2        1949            0.0000000000
      5848      1950  TIP3      OH2             9.5225128566       16.2160387879        6.2250185013  W2        1950            0.0000000000
      5849      1950  TIP3      H1              9.9306328566       15.3586987879        6.1040785013  W2        1950            0.0000000000
      5850      1950  TIP3      H2              9.2622728566       16.2301687879        7.1460485013  W2        1950            0.0000000000
      5851      1951  TIP3      OH2            14.1806128566       17.3318987879       -8.7566514987  W2        1951            0.0000000000
      5852      1951  TIP3      H1             13.7208128566       16.8477287879       -8.0708014987  W2        1951            0.0000000000
      5853      1951  TIP3      H2             14.4354828566       16.6634387879       -9.3926014987  W2        1951            0.0000000000
      5854      1952  TIP3      OH2            13.4695428566       15.2246087879        3.5993085013  W2        1952            0.0000000000
      5855      1952  TIP3      H1             12.8511528566       15.8992687879        3.8797785013  W2        1952            0.0000000000
      5856      1952  TIP3      H2             13.8136628566       15.5459987879        2.7659285013  W2        1952            0.0000000000
      5857      1953  TIP3      OH2            15.2516528566       15.5750787879      -10.4943314987  W2        1953            0.0000000000
      5858      1953  TIP3      H1             15.0711528566       15.4201987879      -11.4215014987  W2        1953            0.0000000000
      5859      1953  TIP3      H2             16.2017028566       15.6829487879      -10.4495414987  W2        1953            0.0000000000
      5860      1954  TIP3      OH2            18.4893628566       17.6961387879        6.8767885013  W2        1954            0.0000000000
      5861      1954  TIP3      H1             19.4424828566       17.7800487879        6.8493885013  W2        1954            0.0000000000
      5862      1954  TIP3      H2             18.3288228566       16.9843187879        7.4962785013  W2        1954            0.0000000000
      5863      1955  TIP3      OH2            24.6414828566       17.9294987879      -11.0485214987  W2        1955            0.0000000000
      5864      1955  TIP3      H1             24.3679628566       17.5050487879      -11.8616914987  W2        1955            0.0000000000
      5865      1955  TIP3      H2             24.6808928566       18.8609487879      -11.2654814987  W2        1955            0.0000000000
      5866      1956  TIP3      OH2            13.8089128566       12.5796887879        4.6816185013  W2        1956            0.0000000000
      5867      1956  TIP3      H1             13.9590028566       11.8508187879        4.0795885013  W2        1956            0.0000000000
      5868      1956  TIP3      H2             13.8111528566       13.3568587879        4.1228385013  W2        1956            0.0000000000
      5869      1957  TIP3      OH2            14.2214828566       10.9492687879        2.1743585013  W2        1957            0.0000000000
      5870      1957  TIP3      H1             14.7572328566       11.4009387879        1.5222885013  W2        1957            0.0000000000
      5871      1957  TIP3      H2             13.3694428566       10.8412487879        1.7517685013  W2        1957            0.0000000000
      5872      1958  TIP3      OH2            15.8033228566       16.3888887879        2.4138785013  W2        1958            0.0000000000
      5873      1958  TIP3      H1             16.5538028566       16.2326387879        1.8406585013  W2        1958            0.0000000000
      5874      1958  TIP3      H2             15.4641528566       17.2405487879        2.1384285013  W2        1958            0.0000000000
      5875      1959  TIP3      OH2            20.2189428566       14.2040687879        7.4424085013  W2        1959            0.0000000000
      5876      1959  TIP3      H1             20.4110728566       13.2730087879        7.3308585013  W2        1959            0.0000000000
      5877      1959  TIP3      H2             21.0765728566       14.6290187879        7.4319485013  W2        1959            0.0000000000
      5878      1960  TIP3      OH2            21.5356628566       16.9925887879        5.5196785013  W2        1960            0.0000000000
      5879      1960  TIP3      H1             21.2541628566       17.7020487879        4.9420585013  W2        1960            0.0000000000
      5880      1960  TIP3      H2             22.4780928566       16.9198887879        5.3687985013  W2        1960            0.0000000000
      5881      1961  TIP3      OH2            12.2875428566       13.7780387879        6.5931785013  W2        1961            0.0000000000
      5882      1961  TIP3      H1             11.5204428566       13.2455187879        6.3829385013  W2        1961            0.0000000000
      5883      1961  TIP3      H2             12.9664428566       13.4680787879        5.9938085013  W2        1961            0.0000000000
      5884      1962  TIP3      OH2            15.0270328566        8.4058387879        2.6057185013  W2        1962            0.0000000000
      5885      1962  TIP3      H1             14.9289928566        9.3521587879        2.5003385013  W2        1962            0.0000000000
      5886      1962  TIP3      H2             14.2846528566        8.0332187879        2.1300685013  W2        1962            0.0000000000
      5887      1963  TIP3      OH2            16.2910828566       12.7273787879        6.1695585013  W2        1963            0.0000000000
      5888      1963  TIP3      H1             16.0556228566       12.5080487879        7.0710485013  W2        1963            0.0000000000
      5889      1963  TIP3      H2             15.5077728566       12.5204987879        5.6598085013  W2        1963            0.0000000000
      5890      1964  TIP3      OH2            19.0067428566       11.8547287879        5.2449085013  W2        1964            0.0000000000
      5891      1964  TIP3      H1             18.0592828566       11.8866987879        5.3772385013  W2        1964            0.0000000000
      5892      1964  TIP3      H2             19.3194128566       11.2294387879        5.8987285013  W2        1964            0.0000000000
      5893      1965  TIP3      OH2            20.6408928566       10.4888387879        7.2500985013  W2        1965            0.0000000000
      5894      1965  TIP3      H1             20.5440728566        9.5365687879        7.2442885013  W2        1965            0.0000000000
      5895      1965  TIP3      H2             20.3192028566       10.7575187879        8.1106485013  W2        1965            0.0000000000
      5896      1966  TIP3      OH2            10.4678228566       11.6984187879        6.2976485013  W2        1966            0.0000000000
      5897      1966  TIP3      H1             10.6795628566       10.9920287879        5.6873985013  W2        1966            0.0000000000
      5898      1966  TIP3      H2             10.3565728566       11.2610187879        7.1417685013  W2        1966            0.0000000000
      5899      1967  TIP3      OH2            15.2488428566        7.6995787879        5.2769985013  W2        1967            0.0000000000
      5900      1967  TIP3      H1             15.9606828566        7.0597987879        5.2629085013  W2        1967            0.0000000000
      5901      1967  TIP3      H2             15.1478828566        7.9664087879        4.3633085013  W2        1967            0.0000000000
      5902      1968  TIP3      OH2            15.6025928566        9.3824187879        7.3306285013  W2        1968            0.0000000000
      5903      1968  TIP3      H1             15.4708128566        8.9067987879        6.5104785013  W2        1968            0.0000000000
      5904      1968  TIP3      H2             15.0033328566       10.1267787879        7.2753385013  W2        1968            0.0000000000
      5905      1969  TIP3      OH2            15.1488228566       26.2654487879       -9.4929714987  W2        1969            0.0000000000
      5906      1969  TIP3      H1             16.0818928566       26.4233187879       -9.3491314987  W2        1969            0.0000000000
      5907      1969  TIP3      H2             14.8847028566       26.9407487879      -10.1178214987  W2        1969            0.0000000000
      5908      1970  TIP3      OH2             8.7173128566       20.9018287879      -10.0101614987  W2        1970            0.0000000000
      5909      1970  TIP3      H1              9.6312328566       20.9807187879       -9.7367714987  W2        1970            0.0000000000
      5910      1970  TIP3      H2              8.7246228566       20.2147887879      -10.6766014987  W2        1970            0.0000000000
      5911      1971  TIP3      OH2             7.3663728566       26.2946787879       -4.9327714987  W2        1971            0.0000000000
      5912      1971  TIP3      H1              6.7190828566       25.8328487879       -5.4656514987  W2        1971            0.0000000000
      5913      1971  TIP3      H2              7.7208328566       25.6230087879       -4.3501514987  W2        1971            0.0000000000
      5914      1972  TIP3      OH2             8.2362928566       24.3753787879       -3.1281514987  W2        1972            0.0000000000
      5915      1972  TIP3      H1              7.9019728566       23.4951087879       -2.9561314987  W2        1972            0.0000000000
      5916      1972  TIP3      H2              8.4585328566       24.7208787879       -2.2635914987  W2        1972            0.0000000000
      5917      1973  TIP3      OH2            25.7847728566       25.1850187879       -0.1476714987  W2        1973            0.0000000000
      5918      1973  TIP3      H1             25.7634428566       25.3698587879        0.7912685013  W2        1973            0.0000000000
      5919      1973  TIP3      H2             26.4753928566       25.7534187879       -0.4885314987  W2        1973            0.0000000000
      5920      1974  TIP3      OH2            25.3480628566       24.7521287879        2.7742385013  W2        1974            0.0000000000
      5921      1974  TIP3      H1             24.8609328566       24.0165387879        2.4029785013  W2        1974            0.0000000000
      5922      1974  TIP3      H2             25.8973328566       24.3585187879        3.4521785013  W2        1974            0.0000000000
      5923      1975  TIP3      OH2            23.7987928566       20.5419387879        7.4122685013  W2        1975            0.0000000000
      5924      1975  TIP3      H1             22.9329028566       20.4369087879        7.8064985013  W2        1975            0.0000000000
      5925      1975  TIP3      H2             24.1753828566       21.3002687879        7.8587385013  W2        1975            0.0000000000
      5926      1976  TIP3      OH2            25.0997628566       18.7983087879       -7.0734814987  W2        1976            0.0000000000
      5927      1976  TIP3      H1             25.9499028566       19.2193987879       -6.9463214987  W2        1976            0.0000000000
      5928      1976  TIP3      H2             25.1052728566       18.0583187879       -6.4663414987  W2        1976            0.0000000000
      5929      1977  TIP3      OH2            25.4943228566       16.8520487879       -5.2499114987  W2        1977            0.0000000000
      5930      1977  TIP3      H1             24.7677828566       16.3723087879       -4.8521514987  W2        1977            0.0000000000
      5931      1977  TIP3      H2             26.0756528566       17.0575187879       -4.5177514987  W2        1977            0.0000000000
      5932      1978  TIP3      OH2            25.2534428566       19.6367987879       -0.3021514987  W2        1978            0.0000000000
      5933      1978  TIP3      H1             26.0868628566       19.2587987879       -0.5827914987  W2        1978            0.0000000000
      5934      1978  TIP3      H2             25.3654728566       20.5799187879       -0.4212414987  W2        1978            0.0000000000
      5935      1979  TIP3      OH2            23.7396728566       22.5145487879        2.0046885013  W2        1979            0.0000000000
      5936      1979  TIP3      H1             23.0922028566       22.8396987879        2.6302085013  W2        1979            0.0000000000
      5937      1979  TIP3      H2             23.2220728566       22.0743187879        1.3305185013  W2        1979            0.0000000000
      5938      1980  TIP3      OH2            25.7626328566       16.7528987879       -8.8587814987  W2        1980            0.0000000000
      5939      1980  TIP3      H1             25.2407428566       17.1093087879       -9.5776914987  W2        1980            0.0000000000
      5940      1980  TIP3      H2             25.7295528566       17.4276787879       -8.1806914987  W2        1980            0.0000000000
      5941      1981  TIP3      OH2            24.1115328566       13.9924587879      -10.3080714987  W2        1981            0.0000000000
      5942      1981  TIP3      H1             24.2079728566       14.6591587879      -10.9881014987  W2        1981            0.0000000000
      5943      1981  TIP3      H2             23.9714928566       13.1770887879      -10.7895214987  W2        1981            0.0000000000
      5944      1982  TIP3      OH2            23.2810028566       15.3726987879       -4.6870414987  W2        1982            0.0000000000
      5945      1982  TIP3      H1             23.1308828566       14.4275587879       -4.7072614987  W2        1982            0.0000000000
      5946      1982  TIP3      H2             22.9274528566       15.6538387879       -3.8431314987  W2        1982            0.0000000000
      5947      1983  TIP3      OH2             8.3162428566       17.4509187879       -0.6766614987  W2        1983            0.0000000000
      5948      1983  TIP3      H1              8.5005328566       17.3690887879       -1.6123714987  W2        1983            0.0000000000
      5949      1983  TIP3      H2              9.1655328566       17.3266187879       -0.2530214987  W2        1983            0.0000000000
      5950      1984  TIP3      OH2            24.1372928566       17.3430287879        4.9517885013  W2        1984            0.0000000000
      5951      1984  TIP3      H1             24.7200228566       16.6082587879        5.1435085013  W2        1984            0.0000000000
      5952      1984  TIP3      H2             24.7012228566       18.1150587879        4.9983685013  W2        1984            0.0000000000
      5953      1985  TIP3      OH2            25.6340028566       15.2456087879        5.6363285013  W2        1985            0.0000000000
      5954      1985  TIP3      H1             24.7706728566       14.8668187879        5.4707985013  W2        1985            0.0000000000
      5955      1985  TIP3      H2             26.2383728566       14.5070887879        5.5619085013  W2        1985            0.0000000000
      5956      1986  TIP3      OH2            23.3589128566       11.4004387879      -11.1905214987  W2        1986            0.0000000000
      5957      1986  TIP3      H1             23.9694928566       11.0291187879      -10.5537014987  W2        1986            0.0000000000
      5958      1986  TIP3      H2             22.5220628566       10.9791287879      -10.9945214987  W2        1986            0.0000000000
      5959      1987  TIP3      OH2            22.9914828566       12.9552787879       -6.2245314987  W2        1987            0.0000000000
      5960      1987  TIP3      H1             23.2711928566       12.0483187879       -6.1003614987  W2        1987            0.0000000000
      5961      1987  TIP3      H2             23.7506528566       13.3894287879       -6.6136114987  W2        1987            0.0000000000
      5962      1988  TIP3      OH2            23.6033128566       13.5370187879       -0.7886414987  W2        1988            0.0000000000
      5963      1988  TIP3      H1             24.5361128566       13.7490087879       -0.8230414987  W2        1988            0.0000000000
      5964      1988  TIP3      H2             23.3680628566       13.6382287879        0.1336585013  W2        1988            0.0000000000
      5965      1989  TIP3      OH2            23.6325028566       14.2735487879        1.9872985013  W2        1989            0.0000000000
      5966      1989  TIP3      H1             22.7896328566       14.5415887879        2.3532785013  W2        1989            0.0000000000
      5967      1989  TIP3      H2             24.0749328566       15.0957387879        1.7764085013  W2        1989            0.0000000000
      5968      1990  TIP3      OH2             7.9137228566       12.7214187879        5.4642185013  W2        1990            0.0000000000
      5969      1990  TIP3      H1              8.8332128566       12.5992487879        5.7005285013  W2        1990            0.0000000000
      5970      1990  TIP3      H2              7.4641728566       11.9713887879        5.8535685013  W2        1990            0.0000000000
      5971      1991  TIP3      OH2            25.9156628566        8.2535687879        7.3407985013  W2        1991            0.0000000000
      5972      1991  TIP3      H1             26.2653628566        7.5999187879        6.7352685013  W2        1991            0.0000000000
      5973      1991  TIP3      H2             26.0626128566        9.0909787879        6.9010585013  W2        1991            0.0000000000
      5974      1992  TIP3      OH2            23.6049628566       10.2182087879       -6.1763314987  W2        1992            0.0000000000
      5975      1992  TIP3      H1             23.7874628566        9.7693587879       -5.3508314987  W2        1992            0.0000000000
      5976      1992  TIP3      H2             23.0052528566        9.6336487879       -6.6398714987  W2        1992            0.0000000000
      5977      1993  TIP3      OH2             9.1349728566       11.0335787879       -1.6444914987  W2        1993            0.0000000000
      5978      1993  TIP3      H1              9.5801328566       10.2418287879       -1.3425214987  W2        1993            0.0000000000
      5979      1993  TIP3      H2              9.6012728566       11.7500987879       -1.2139314987  W2        1993            0.0000000000
      5980      1994  TIP3      OH2             7.4390028566       14.0328787879       -0.5754714987  W2        1994            0.0000000000
      5981      1994  TIP3      H1              7.9309828566       13.8119287879       -1.3662714987  W2        1994            0.0000000000
      5982      1994  TIP3      H2              7.8010928566       14.8732187879       -0.2945214987  W2        1994            0.0000000000
      5983      1995  TIP3      OH2            25.4353828566       10.3630287879        5.6899285013  W2        1995            0.0000000000
      5984      1995  TIP3      H1             24.5179528566       10.6337387879        5.6542785013  W2        1995            0.0000000000
      5985      1995  TIP3      H2             25.5583228566        9.8278687879        4.9058985013  W2        1995            0.0000000000
      5986      1996  TIP3      OH2            25.4715828566       10.2860187879       -9.6483014987  W2        1996            0.0000000000
      5987      1996  TIP3      H1             25.8838428566        9.5645887879      -10.1235014987  W2        1996            0.0000000000
      5988      1996  TIP3      H2             26.1532328566       10.9554787879       -9.5898714987  W2        1996            0.0000000000
      5989      1997  TIP3      OH2             7.7526528566       10.2907887879       -6.5212314987  W2        1997            0.0000000000
      5990      1997  TIP3      H1              6.8274928566       10.4994487879       -6.6506814987  W2        1997            0.0000000000
      5991      1997  TIP3      H2              8.2066428566       10.7748687879       -7.2110014987  W2        1997            0.0000000000
      5992      1998  TIP3      OH2            22.5233728566       25.2749587879       -4.5754914987  W2        1998            0.0000000000
      5993      1998  TIP3      H1             23.1756628566       24.9271687879       -5.1835814987  W2        1998            0.0000000000
      5994      1998  TIP3      H2             23.0337528566       25.7632787879       -3.9295214987  W2        1998            0.0000000000
      5995      1999  TIP3      OH2             7.7161928566        9.0286887879        1.8230185013  W2        1999            0.0000000000
      5996      1999  TIP3      H1              7.0512428566        8.7827187879        2.4661085013  W2        1999            0.0000000000
      5997      1999  TIP3      H2              7.2733228566        9.6507287879        1.2458185013  W2        1999            0.0000000000
      5998      2000  TIP3      OH2             9.9081228566       22.2040987879        5.9675985013  W2        2000            0.0000000000
      5999      2000  TIP3      H1              9.0873728566       22.3787487879        5.5070685013  W2        2000            0.0000000000
      6000      2000  TIP3      H2              9.6559028566       22.1305687879        6.8880385013  W2        2000            0.0000000000
      6001      2001  TIP3      OH2            12.8624128566       23.1782187879        2.2259985013  W2        2001            0.0000000000
      6002      2001  TIP3      H1             12.4375228566       23.9880687879        1.9434585013  W2        2001            0.0000000000
      6003      2001  TIP3      H2             13.7666928566       23.2636287879        1.9239785013  W2        2001            0.0000000000
      6004      2002  TIP3      OH2            17.1735528566       24.5772187879        5.1853685013  W2        2002            0.0000000000
      6005      2002  TIP3      H1             17.3583028566       24.2438287879        6.0633985013  W2        2002            0.0000000000
      6006      2002  TIP3      H2             18.0200028566       24.8870787879        4.8632885013  W2        2002            0.0000000000
      6007      2003  TIP3      OH2            19.5185928566       25.8631087879        4.4295085013  W2        2003            0.0000000000
      6008      2003  TIP3      H1             20.1954828566       25.2303387879        4.1894285013  W2        2003            0.0000000000
      6009      2003  TIP3      H2             19.8404728566       26.2641587879        5.2368385013  W2        2003            0.0000000000
      6010      2004  TIP3      OH2            24.4359728566        8.4526587879        3.5090085013  W2        2004            0.0000000000
      6011      2004  TIP3      H1             23.6233228566        8.7776887879        3.1214785013  W2        2004            0.0000000000
      6012      2004  TIP3      H2             24.6688228566        7.6925087879        2.9759185013  W2        2004            0.0000000000
      6013      2005  TIP3      OH2            10.2640828566       26.4346087879        2.2735285013  W2        2005            0.0000000000
      6014      2005  TIP3      H1              9.5437228566       26.8747087879        1.8222985013  W2        2005            0.0000000000
      6015      2005  TIP3      H2              9.8984828566       26.1840787879        3.1219285013  W2        2005            0.0000000000
      6016      2006  TIP3      OH2            12.7313428566       26.0349987879        1.3032485013  W2        2006            0.0000000000
      6017      2006  TIP3      H1             11.8665628566       26.1068487879        1.7072585013  W2        2006            0.0000000000
      6018      2006  TIP3      H2             12.6762428566       26.5817287879        0.5194985013  W2        2006            0.0000000000
      6019      2007  TIP3      OH2            17.4419028566       25.9228887879        0.4788485013  W2        2007            0.0000000000
      6020      2007  TIP3      H1             16.9853028566       26.4518587879       -0.1753114987  W2        2007            0.0000000000
      6021      2007  TIP3      H2             17.6047028566       26.5260287879        1.2040785013  W2        2007            0.0000000000
      6022      2008  TIP3      OH2            19.7695328566       24.8008487879        1.4238785013  W2        2008            0.0000000000
      6023      2008  TIP3      H1             18.8649028566       24.9658687879        1.1580885013  W2        2008            0.0000000000
      6024      2008  TIP3      H2             20.1983928566       25.6540687879        1.3582185013  W2        2008            0.0000000000
      6025      2009  TIP3      OH2            22.3737228566       26.3707587879        1.7186585013  W2        2009            0.0000000000
      6026      2009  TIP3      H1             22.1919228566       27.2866487879        1.5081485013  W2        2009            0.0000000000
      6027      2009  TIP3      H2             22.5505028566       25.9604687879        0.8721185013  W2        2009            0.0000000000
      6028      2010  TIP3      OH2             9.6788928566       25.0578587879       -0.8162914987  W2        2010            0.0000000000
      6029      2010  TIP3      H1              9.6604928566       24.6323687879        0.0409385013  W2        2010            0.0000000000
      6030      2010  TIP3      H2             10.4836828566       24.7393587879       -1.2250714987  W2        2010            0.0000000000
      6031      2011  TIP3      OH2            11.8202028566       23.7677287879       -2.1613014987  W2        2011            0.0000000000
      6032      2011  TIP3      H1             11.6012728566       22.8514687879       -1.9917014987  W2        2011            0.0000000000
      6033      2011  TIP3      H2             12.6444228566       23.9077687879       -1.6951614987  W2        2011            0.0000000000
      6034      2012  TIP3      OH2            14.3574528566       24.2376587879       -1.3125014987  W2        2012            0.0000000000
      6035      2012  TIP3      H1             14.5700228566       23.3495587879       -1.5994114987  W2        2012            0.0000000000
      6036      2012  TIP3      H2             14.4219628566       24.2034287879       -0.3581014987  W2        2012            0.0000000000
      6037      2013  TIP3      OH2            17.8658228566        9.9017187879       -2.1681714987  W2        2013            0.0000000000
      6038      2013  TIP3      H1             17.1915028566        9.2722787879       -1.9125914987  W2        2013            0.0000000000
      6039      2013  TIP3      H2             18.4297428566        9.4176087879       -2.7713814987  W2        2013            0.0000000000
      6040      2014  TIP3      OH2            23.0085428566        8.0091187879       -2.0554614987  W2        2014            0.0000000000
      6041      2014  TIP3      H1             23.6123028566        8.5566587879       -2.5573614987  W2        2014            0.0000000000
      6042      2014  TIP3      H2             22.1387428566        8.3281587879       -2.2960514987  W2        2014            0.0000000000
      6043      2015  TIP3      OH2            24.7355828566        9.1479887879       -3.7223714987  W2        2015            0.0000000000
      6044      2015  TIP3      H1             25.3473328566        8.6335587879       -4.2490114987  W2        2015            0.0000000000
      6045      2015  TIP3      H2             25.1179228566       10.0251987879       -3.6989314987  W2        2015            0.0000000000
      6046      2016  TIP3      OH2            10.1925728566        8.5357487879       -4.3461814987  W2        2016            0.0000000000
      6047      2016  TIP3      H1              9.4155528566        8.3012387879       -4.8535914987  W2        2016            0.0000000000
      6048      2016  TIP3      H2             10.7229328566        7.7389587879       -4.3373814987  W2        2016            0.0000000000
      6049      2017  TIP3      OH2             9.0289128566        8.3335587879       -8.5425714987  W2        2017            0.0000000000
      6050      2017  TIP3      H1              9.4679828566        8.9446087879       -9.1342214987  W2        2017            0.0000000000
      6051      2017  TIP3      H2              8.3951528566        8.8719687879       -8.0685714987  W2        2017            0.0000000000
      6052      2018  TIP3      OH2            14.7718328566        8.4624587879       -4.5328714987  W2        2018            0.0000000000
      6053      2018  TIP3      H1             15.6461728566        8.8508887879       -4.5624414987  W2        2018            0.0000000000
      6054      2018  TIP3      H2             14.6359128566        8.2472387879       -3.6101514987  W2        2018            0.0000000000
      6055      2019  TIP3      OH2            20.3286728566        8.4924387879       -2.8837014987  W2        2019            0.0000000000
      6056      2019  TIP3      H1             20.4048328566        8.5875987879       -3.8331014987  W2        2019            0.0000000000
      6057      2019  TIP3      H2             20.0535928566        7.5847287879       -2.7547914987  W2        2019            0.0000000000
      6058      2020  TIP3      OH2            21.6819328566        8.5182187879       -7.1912014987  W2        2020            0.0000000000
      6059      2020  TIP3      H1             20.9790428566        9.1331387879       -7.4010614987  W2        2020            0.0000000000
      6060      2020  TIP3      H2             21.2370728566        7.6808887879       -7.0601114987  W2        2020            0.0000000000
      6061      2021  TIP3      OH2             8.9298628566       24.2817787879       -7.6450614987  W2        2021            0.0000000000
      6062      2021  TIP3      H1              8.2448528566       24.2436687879       -8.3125514987  W2        2021            0.0000000000
      6063      2021  TIP3      H2              8.9335828566       25.1945387879       -7.3568514987  W2        2021            0.0000000000
      6064      2022  TIP3      OH2            10.8898228566       10.2497087879      -10.1001614987  W2        2022            0.0000000000
      6065      2022  TIP3      H1             11.3811628566        9.6199487879      -10.6276114987  W2        2022            0.0000000000
      6066      2022  TIP3      H2             11.5134528566       10.5456487879       -9.4370414987  W2        2022            0.0000000000
      6067      2023  TIP3      OH2            15.9158328566       10.5428587879       -7.6431114987  W2        2023            0.0000000000
      6068      2023  TIP3      H1             16.0939628566        9.8961787879       -6.9602514987  W2        2023            0.0000000000
      6069      2023  TIP3      H2             15.8624528566       11.3766287879       -7.1760014987  W2        2023            0.0000000000
      6070      2024  TIP3      OH2            17.7942128566       25.4912687879       -9.2474414987  W2        2024            0.0000000000
      6071      2024  TIP3      H1             18.6602328566       25.8580087879       -9.4256214987  W2        2024            0.0000000000
      6072      2024  TIP3      H2             17.5474928566       25.0520687879      -10.0613614987  W2        2024            0.0000000000
      6073      2025  TIP3      OH2            24.5031728566       25.0542987879       -6.5683314987  W2        2025            0.0000000000
      6074      2025  TIP3      H1             24.3088828566       24.3065087879       -7.1333714987  W2        2025            0.0000000000
      6075      2025  TIP3      H2             24.4641828566       25.8123087879       -7.1515414987  W2        2025            0.0000000000
      6076      2026  TIP3      OH2            10.1503728566        9.0499387879        5.1714385013  W2        2026            0.0000000000
      6077      2026  TIP3      H1              9.7841928566        8.2841987879        5.6139085013  W2        2026            0.0000000000
      6078      2026  TIP3      H2             11.0632228566        9.0789587879        5.4579485013  W2        2026            0.0000000000
      6079      2027  TIP3      OH2            12.1234528566        8.4003787879        6.7071485013  W2        2027            0.0000000000
      6080      2027  TIP3      H1             13.0218128566        8.1263987879        6.5224885013  W2        2027            0.0000000000
      6081      2027  TIP3      H2             11.7367628566        7.6579787879        7.1714085013  W2        2027            0.0000000000
      6082      2028  TIP3      OH2            10.7479828566       25.2018587879      -10.6198514987  W2        2028            0.0000000000
      6083      2028  TIP3      H1             10.4804428566       25.4881487879       -9.7465414987  W2        2028            0.0000000000
      6084      2028  TIP3      H2             11.5192428566       24.6557787879      -10.4676014987  W2        2028            0.0000000000
      6085      2029  TIP3      OH2            20.5446828566        7.7329087879        6.8894285013  W2        2029            0.0000000000
      6086      2029  TIP3      H1             20.6214028566        7.3069787879        7.7431985013  W2        2029            0.0000000000
      6087      2029  TIP3      H2             21.4383428566        7.7463787879        6.5467785013  W2        2029            0.0000000000
      6088      2030  TIP3      OH2            23.7207928566       23.8055387879        5.5818485013  W2        2030            0.0000000000
      6089      2030  TIP3      H1             22.9389828566       23.6193387879        5.0619085013  W2        2030            0.0000000000
      6090      2030  TIP3      H2             23.6487828566       24.7349687879        5.7990985013  W2        2030            0.0000000000
      6091      2031  TIP3      OH2            29.4284628566       16.5612587879        0.6243785013  W2        2031            0.0000000000
      6092      2031  TIP3      H1             29.4696728566       15.9355887879        1.3476185013  W2        2031            0.0000000000
      6093      2031  TIP3      H2             30.1312328566       17.1851187879        0.8064185013  W2        2031            0.0000000000
      6094      2032  TIP3      OH2            26.9618228566       14.6714087879       -5.4478314987  W2        2032            0.0000000000
      6095      2032  TIP3      H1             26.5141628566       15.5172787879       -5.4661814987  W2        2032            0.0000000000
      6096      2032  TIP3      H2             26.4009428566       14.0918287879       -5.9633214987  W2        2032            0.0000000000
      6097      2033  TIP3      OH2            27.6724328566       16.8333687879       -3.3220314987  W2        2033            0.0000000000
      6098      2033  TIP3      H1             27.8857828566       16.0635287879       -2.7947314987  W2        2033            0.0000000000
      6099      2033  TIP3      H2             28.4101928566       16.9230387879       -3.9252714987  W2        2033            0.0000000000
      6100      2034  TIP3      OH2            28.3650828566       14.2716487879       -2.2004114987  W2        2034            0.0000000000
      6101      2034  TIP3      H1             29.0187428566       13.7218187879       -1.7684014987  W2        2034            0.0000000000
      6102      2034  TIP3      H2             28.3890128566       13.9975487879       -3.1172114987  W2        2034            0.0000000000
      6103      2035  TIP3      OH2            27.6527828566       20.1035687879       -7.0320214987  W2        2035            0.0000000000
      6104      2035  TIP3      H1             27.3808728566       20.3326687879       -7.9207314987  W2        2035            0.0000000000
      6105      2035  TIP3      H2             27.6983528566       20.9414487879       -6.5714914987  W2        2035            0.0000000000
      6106      2036  TIP3      OH2            26.9825028566       19.2082787879        2.3029485013  W2        2036            0.0000000000
      6107      2036  TIP3      H1             26.4813428566       19.1802187879        1.4879185013  W2        2036            0.0000000000
      6108      2036  TIP3      H2             26.9878728566       18.3025987879        2.6126785013  W2        2036            0.0000000000
      6109      2037  TIP3      OH2            26.7327728566       21.9886587879       -0.8130314987  W2        2037            0.0000000000
      6110      2037  TIP3      H1             27.6788328566       21.8443587879       -0.8320814987  W2        2037            0.0000000000
      6111      2037  TIP3      H2             26.6204028566       22.7729387879       -0.2759114987  W2        2037            0.0000000000
      6112      2038  TIP3      OH2            29.2315528566       20.5318187879        3.3462285013  W2        2038            0.0000000000
      6113      2038  TIP3      H1             29.4476828566       20.1703787879        4.2058085013  W2        2038            0.0000000000
      6114      2038  TIP3      H2             28.3760228566       20.1571987879        3.1365785013  W2        2038            0.0000000000
      6115      2039  TIP3      OH2            29.6914128566       14.2876687879        2.3038685013  W2        2039            0.0000000000
      6116      2039  TIP3      H1             29.6533528566       14.6878287879        3.1725785013  W2        2039            0.0000000000
      6117      2039  TIP3      H2             29.2005228566       13.4709087879        2.3941585013  W2        2039            0.0000000000
      6118      2040  TIP3      OH2            26.2994928566       11.4038487879       -3.8456614987  W2        2040            0.0000000000
      6119      2040  TIP3      H1             26.9302628566       11.3750587879       -3.1262714987  W2        2040            0.0000000000
      6120      2040  TIP3      H2             26.7489228566       10.9787187879       -4.5760714987  W2        2040            0.0000000000
      6121      2041  TIP3      OH2            27.5737028566       12.1500487879       -8.4216214987  W2        2041            0.0000000000
      6122      2041  TIP3      H1             28.0478728566       12.7410387879       -9.0065314987  W2        2041            0.0000000000
      6123      2041  TIP3      H2             26.8563428566       12.6803387879       -8.0746114987  W2        2041            0.0000000000
      6124      2042  TIP3      OH2            29.3481428566       13.2447087879       -4.7381614987  W2        2042            0.0000000000
      6125      2042  TIP3      H1             28.4589428566       13.3442587879       -5.0782014987  W2        2042            0.0000000000
      6126      2042  TIP3      H2             29.6446328566       12.4030087879       -5.0843714987  W2        2042            0.0000000000
      6127      2043  TIP3      OH2            29.8104828566       18.9963787879        5.5840685013  W2        2043            0.0000000000
      6128      2043  TIP3      H1             30.5427228566       19.2509687879        6.1455185013  W2        2043            0.0000000000
      6129      2043  TIP3      H2             29.0303528566       19.2009187879        6.0996085013  W2        2043            0.0000000000
      6130      2044  TIP3      OH2            27.1434228566       16.7604487879        3.5053585013  W2        2044            0.0000000000
      6131      2044  TIP3      H1             27.3662828566       16.3424087879        4.3371085013  W2        2044            0.0000000000
      6132      2044  TIP3      H2             26.5414328566       16.1479487879        3.0826385013  W2        2044            0.0000000000
      6133      2045  TIP3      OH2            28.2651628566       16.6799887879       -9.8181014987  W2        2045            0.0000000000
      6134      2045  TIP3      H1             28.8811528566       17.3067087879       -9.4386214987  W2        2045            0.0000000000
      6135      2045  TIP3      H2             27.4034228566       16.9959687879       -9.5464514987  W2        2045            0.0000000000
      6136      2046  TIP3      OH2            28.7773728566       11.5137187879        3.0634985013  W2        2046            0.0000000000
      6137      2046  TIP3      H1             27.8846028566       11.8522587879        2.9958985013  W2        2046            0.0000000000
      6138      2046  TIP3      H2             28.6786528566       10.6583287879        3.4815785013  W2        2046            0.0000000000
      6139      2047  TIP3      OH2            28.4285728566       23.3181587879        1.4984385013  W2        2047            0.0000000000
      6140      2047  TIP3      H1             28.6456028566       22.3863987879        1.4674085013  W2        2047            0.0000000000
      6141      2047  TIP3      H2             28.6749228566       23.5926587879        2.3817185013  W2        2047            0.0000000000
      6142      2048  TIP3      OH2            29.6802028566       18.5923687879       -8.3255414987  W2        2048            0.0000000000
      6143      2048  TIP3      H1             28.9941328566       18.9446187879       -7.7585714987  W2        2048            0.0000000000
      6144      2048  TIP3      H2             30.2029928566       19.3553287879       -8.5721114987  W2        2048            0.0000000000
      6145      2049  TIP3      OH2            28.6120128566       13.8705587879      -10.3128214987  W2        2049            0.0000000000
      6146      2049  TIP3      H1             28.5672728566       14.8098687879      -10.1341214987  W2        2049            0.0000000000
      6147      2049  TIP3      H2             27.7243328566       13.6350487879      -10.5826114987  W2        2049            0.0000000000
      6148      2050  TIP3      OH2            29.4202128566        8.6522187879       -1.6397214987  W2        2050            0.0000000000
      6149      2050  TIP3      H1             29.1911928566        8.7114687879       -2.5672214987  W2        2050            0.0000000000
      6150      2050  TIP3      H2             28.9775528566        7.8607687879       -1.3333114987  W2        2050            0.0000000000
      6151      2051  TIP3      OH2            28.3505428566       22.5929287879       -5.4791414987  W2        2051            0.0000000000
      6152      2051  TIP3      H1             27.5184028566       23.0651987879       -5.4520014987  W2        2051            0.0000000000
      6153      2051  TIP3      H2             28.8963728566       23.1026887879       -6.0778314987  W2        2051            0.0000000000
      6154      2052  TIP3      OH2            27.6389128566       25.2052987879        5.8506585013  W2        2052            0.0000000000
      6155      2052  TIP3      H1             28.1791328566       24.9886987879        6.6105785013  W2        2052            0.0000000000
      6156      2052  TIP3      H2             27.1577128566       24.3998987879        5.6609085013  W2        2052            0.0000000000
      6157      2053  TIP3      OH2            27.5458628566       19.0157087879        6.8050885013  W2        2053            0.0000000000
      6158      2053  TIP3      H1             27.6899128566       18.1137787879        6.5187585013  W2        2053            0.0000000000
      6159      2053  TIP3      H2             26.7736028566       19.3019187879        6.3173185013  W2        2053            0.0000000000
      6160      2054  TIP3      OH2            28.3785128566       16.2160387879        6.2250185013  W2        2054            0.0000000000
      6161      2054  TIP3      H1             28.7866328566       15.3586987879        6.1040785013  W2        2054            0.0000000000
      6162      2054  TIP3      H2             28.1182728566       16.2301687879        7.1460485013  W2        2054            0.0000000000
      6163      2055  TIP3      OH2            29.3238228566       11.6984187879        6.2976485013  W2        2055            0.0000000000
      6164      2055  TIP3      H1             29.5355628566       10.9920287879        5.6873985013  W2        2055            0.0000000000
      6165      2055  TIP3      H2             29.2125728566       11.2610187879        7.1417685013  W2        2055            0.0000000000
      6166      2056  TIP3      OH2            27.5733128566       20.9018287879      -10.0101614987  W2        2056            0.0000000000
      6167      2056  TIP3      H1             28.4872328566       20.9807187879       -9.7367714987  W2        2056            0.0000000000
      6168      2056  TIP3      H2             27.5806228566       20.2147887879      -10.6766014987  W2        2056            0.0000000000
      6169      2057  TIP3      OH2            26.2223728566       26.2946787879       -4.9327714987  W2        2057            0.0000000000
      6170      2057  TIP3      H1             25.5750828566       25.8328487879       -5.4656514987  W2        2057            0.0000000000
      6171      2057  TIP3      H2             26.5768328566       25.6230087879       -4.3501514987  W2        2057            0.0000000000
      6172      2058  TIP3      OH2            27.0922928566       24.3753787879       -3.1281514987  W2        2058            0.0000000000
      6173      2058  TIP3      H1             26.7579728566       23.4951087879       -2.9561314987  W2        2058            0.0000000000
      6174      2058  TIP3      H2             27.3145328566       24.7208787879       -2.2635914987  W2        2058            0.0000000000
      6175      2059  TIP3      OH2            27.1722428566       17.4509187879       -0.6766614987  W2        2059            0.0000000000
      6176      2059  TIP3      H1             27.3565328566       17.3690887879       -1.6123714987  W2        2059            0.0000000000
      6177      2059  TIP3      H2             28.0215328566       17.3266187879       -0.2530214987  W2        2059            0.0000000000
      6178      2060  TIP3      OH2            26.7697228566       12.7214187879        5.4642185013  W2        2060            0.0000000000
      6179      2060  TIP3      H1             27.6892128566       12.5992487879        5.7005285013  W2        2060            0.0000000000
      6180      2060  TIP3      H2             26.3201728566       11.9713887879        5.8535685013  W2        2060            0.0000000000
      6181      2061  TIP3      OH2            27.9909728566       11.0335787879       -1.6444914987  W2        2061            0.0000000000
      6182      2061  TIP3      H1             28.4361328566       10.2418287879       -1.3425214987  W2        2061            0.0000000000
      6183      2061  TIP3      H2             28.4572728566       11.7500987879       -1.2139314987  W2        2061            0.0000000000
      6184      2062  TIP3      OH2            26.2950028566       14.0328787879       -0.5754714987  W2        2062            0.0000000000
      6185      2062  TIP3      H1             26.7869828566       13.8119287879       -1.3662714987  W2        2062            0.0000000000
      6186      2062  TIP3      H2             26.6570928566       14.8732187879       -0.2945214987  W2        2062            0.0000000000
      6187      2063  TIP3      OH2            26.6086528566       10.2907887879       -6.5212314987  W2        2063            0.0000000000
      6188      2063  TIP3      H1             25.6834928566       10.4994487879       -6.6506814987  W2        2063            0.0000000000
      6189      2063  TIP3      H2             27.0626428566       10.7748687879       -7.2110014987  W2        2063            0.0000000000
      6190      2064  TIP3      OH2            26.5721928566        9.0286887879        1.8230185013  W2        2064            0.0000000000
      6191      2064  TIP3      H1             25.9072428566        8.7827187879        2.4661085013  W2        2064            0.0000000000
      6192      2064  TIP3      H2             26.1293228566        9.6507287879        1.2458185013  W2        2064            0.0000000000
      6193      2065  TIP3      OH2            28.7641228566       22.2040987879        5.9675985013  W2        2065            0.0000000000
      6194      2065  TIP3      H1             27.9433728566       22.3787487879        5.5070685013  W2        2065            0.0000000000
      6195      2065  TIP3      H2             28.5119028566       22.1305687879        6.8880385013  W2        2065            0.0000000000
      6196      2066  TIP3      OH2            29.1200828566       26.4346087879        2.2735285013  W2        2066            0.0000000000
      6197      2066  TIP3      H1             28.3997228566       26.8747087879        1.8222985013  W2        2066            0.0000000000
      6198      2066  TIP3      H2             28.7544828566       26.1840787879        3.1219285013  W2        2066            0.0000000000
      6199      2067  TIP3      OH2            28.5348928566       25.0578587879       -0.8162914987  W2        2067            0.0000000000
      6200      2067  TIP3      H1             28.5164928566       24.6323687879        0.0409385013  W2        2067            0.0000000000
      6201      2067  TIP3      H2             29.3396828566       24.7393587879       -1.2250714987  W2        2067            0.0000000000
      6202      2068  TIP3      OH2            29.0485728566        8.5357487879       -4.3461814987  W2        2068            0.0000000000
      6203      2068  TIP3      H1             28.2715528566        8.3012387879       -4.8535914987  W2        2068            0.0000000000
      6204      2068  TIP3      H2             29.5789328566        7.7389587879       -4.3373814987  W2        2068            0.0000000000
      6205      2069  TIP3      OH2            27.8849128566        8.3335587879       -8.5425714987  W2        2069            0.0000000000
      6206      2069  TIP3      H1             28.3239828566        8.9446087879       -9.1342214987  W2        2069            0.0000000000
      6207      2069  TIP3      H2             27.2511528566        8.8719687879       -8.0685714987  W2        2069            0.0000000000
      6208      2070  TIP3      OH2            27.7858628566       24.2817787879       -7.6450614987  W2        2070            0.0000000000
      6209      2070  TIP3      H1             27.1008528566       24.2436687879       -8.3125514987  W2        2070            0.0000000000
      6210      2070  TIP3      H2             27.7895828566       25.1945387879       -7.3568514987  W2        2070            0.0000000000
      6211      2071  TIP3      OH2            29.7458228566       10.2497087879      -10.1001614987  W2        2071            0.0000000000
      6212      2071  TIP3      H1             30.2371628566        9.6199487879      -10.6276114987  W2        2071            0.0000000000
      6213      2071  TIP3      H2             30.3694528566       10.5456487879       -9.4370414987  W2        2071            0.0000000000
      6214      2072  TIP3      OH2            29.0063728566        9.0499387879        5.1714385013  W2        2072            0.0000000000
      6215      2072  TIP3      H1             28.6401928566        8.2841987879        5.6139085013  W2        2072            0.0000000000
      6216      2072  TIP3      H2             29.9192228566        9.0789587879        5.4579485013  W2        2072            0.0000000000
      6217      2073  TIP3      OH2            29.6039828566       25.2018587879      -10.6198514987  W2        2073            0.0000000000
      6218      2073  TIP3      H1             29.3364428566       25.4881487879       -9.7465414987  W2        2073            0.0000000000
      6219      2073  TIP3      H2             30.3752428566       24.6557787879      -10.4676014987  W2        2073            0.0000000000
      6220      2074  TIP3      OH2           -12.4556171434       29.8367187879        0.2981085013  W2        2074            0.0000000000
      6221      2074  TIP3      H1            -12.4063971434       30.4468387879        1.0340185013  W2        2074            0.0000000000
      6222      2074  TIP3      H2            -12.0301071434       30.2978087879       -0.4247814987  W2        2074            0.0000000000
      6223      2075  TIP3      OH2           -26.0128771434       29.6489087879        1.1115285013  W2        2075            0.0000000000
      6224      2075  TIP3      H1            -26.2317071434       30.1789687879        0.3451285013  W2        2075            0.0000000000
      6225      2075  TIP3      H2            -26.6807871434       29.8754587879        1.7586685013  W2        2075            0.0000000000
      6226      2076  TIP3      OH2           -15.3369571434       30.1525587879       -2.5811314987  W2        2076            0.0000000000
      6227      2076  TIP3      H1            -15.5521571434       29.3868987879       -2.0485314987  W2        2076            0.0000000000
      6228      2076  TIP3      H2            -14.6812171434       30.6250187879       -2.0682814987  W2        2076            0.0000000000
      6229      2077  TIP3      OH2           -14.9895471434       28.8676887879        1.0982185013  W2        2077            0.0000000000
      6230      2077  TIP3      H1            -15.7256271434       29.4783987879        1.0603485013  W2        2077            0.0000000000
      6231      2077  TIP3      H2            -14.3061471434       29.2825887879        0.5718585013  W2        2077            0.0000000000
      6232      2078  TIP3      OH2           -21.9864071434       26.9544187879       -1.4359814987  W2        2078            0.0000000000
      6233      2078  TIP3      H1            -22.1039871434       26.0060187879       -1.4901514987  W2        2078            0.0000000000
      6234      2078  TIP3      H2            -22.8413971434       27.2870287879       -1.1628714987  W2        2078            0.0000000000
      6235      2079  TIP3      OH2           -13.7443571434       26.9136387879       -8.4857214987  W2        2079            0.0000000000
      6236      2079  TIP3      H1            -14.6442871434       27.0525387879       -8.1906614987  W2        2079            0.0000000000
      6237      2079  TIP3      H2            -13.4925171434       27.7450987879       -8.8875514987  W2        2079            0.0000000000
      6238      2080  TIP3      OH2           -24.7176471434       27.8578687879       -0.6583514987  W2        2080            0.0000000000
      6239      2080  TIP3      H1            -25.5792771434       27.7706887879       -1.0660614987  W2        2080            0.0000000000
      6240      2080  TIP3      H2            -24.7400771434       28.7138787879       -0.2305914987  W2        2080            0.0000000000
      6241      2081  TIP3      OH2           -20.0548671434       27.5799087879        2.7163485013  W2        2081            0.0000000000
      6242      2081  TIP3      H1            -19.6345571434       27.1646187879        3.4694085013  W2        2081            0.0000000000
      6243      2081  TIP3      H2            -20.9879071434       27.4012387879        2.8335485013  W2        2081            0.0000000000
      6244      2082  TIP3      OH2           -20.3931371434       30.0722487879       -9.9985714987  W2        2082            0.0000000000
      6245      2082  TIP3      H1            -20.6466571434       30.0914087879       -9.0757614987  W2        2082            0.0000000000
      6246      2082  TIP3      H2            -20.6499271434       29.2007887879      -10.2999514987  W2        2082            0.0000000000
      6247      2083  TIP3      OH2           -17.6430071434       29.7067087879       -0.3007414987  W2        2083            0.0000000000
      6248      2083  TIP3      H1            -18.3198471434       29.8380187879        0.3632285013  W2        2083            0.0000000000
      6249      2083  TIP3      H2            -18.1285171434       29.5516587879       -1.1109714987  W2        2083            0.0000000000
      6250      2084  TIP3      OH2           -25.7262571434       29.3959887879       -5.2594814987  W2        2084            0.0000000000
      6251      2084  TIP3      H1            -26.0433071434       28.4935187879       -5.2949414987  W2        2084            0.0000000000
      6252      2084  TIP3      H2            -24.9448471434       29.3977287879       -5.8123214987  W2        2084            0.0000000000
      6253      2085  TIP3      OH2           -19.0562871434       30.1107487879        1.9533585013  W2        2085            0.0000000000
      6254      2085  TIP3      H1            -18.3574971434       30.1846187879        2.6033285013  W2        2085            0.0000000000
      6255      2085  TIP3      H2            -19.4371471434       29.2462487879        2.1076485013  W2        2085            0.0000000000
      6256      2086  TIP3      OH2           -18.2717971434       29.7629187879       -6.9494114987  W2        2086            0.0000000000
      6257      2086  TIP3      H1            -18.0519671434       30.2344587879       -7.7528714987  W2        2086            0.0000000000
      6258      2086  TIP3      H2            -17.7133971434       30.1571787879       -6.2793514987  W2        2086            0.0000000000
      6259      2087  TIP3      OH2           -20.1881371434       28.5720987879       -5.1764614987  W2        2087            0.0000000000
      6260      2087  TIP3      H1            -20.5347871434       29.1891587879       -4.5320314987  W2        2087            0.0000000000
      6261      2087  TIP3      H2            -19.5294471434       29.0726687879       -5.6579114987  W2        2087            0.0000000000
      6262      2088  TIP3      OH2           -24.5304371434       29.6350387879       -8.4892114987  W2        2088            0.0000000000
      6263      2088  TIP3      H1            -24.6139571434       30.5233487879       -8.1425714987  W2        2088            0.0000000000
      6264      2088  TIP3      H2            -23.6404071434       29.3697087879       -8.2575314987  W2        2088            0.0000000000
      6265      2089  TIP3      OH2           -27.1477871434       27.5082187879       -1.6397214987  W2        2089            0.0000000000
      6266      2089  TIP3      H1            -27.3768071434       27.5674687879       -2.5672214987  W2        2089            0.0000000000
      6267      2089  TIP3      H2            -27.5904471434       26.7167687879       -1.3333114987  W2        2089            0.0000000000
      6268      2090  TIP3      OH2           -23.4905171434       29.8052687879        2.1743585013  W2        2090            0.0000000000
      6269      2090  TIP3      H1            -22.9547671434       30.2569387879        1.5222885013  W2        2090            0.0000000000
      6270      2090  TIP3      H2            -24.3425571434       29.6972487879        1.7517685013  W2        2090            0.0000000000
      6271      2091  TIP3      OH2           -22.6849671434       27.2618387879        2.6057185013  W2        2091            0.0000000000
      6272      2091  TIP3      H1            -22.7830071434       28.2081587879        2.5003385013  W2        2091            0.0000000000
      6273      2091  TIP3      H2            -23.4273471434       26.8892187879        2.1300685013  W2        2091            0.0000000000
      6274      2092  TIP3      OH2           -17.0711071434       29.3448387879        7.2500985013  W2        2092            0.0000000000
      6275      2092  TIP3      H1            -17.1679271434       28.3925687879        7.2442885013  W2        2092            0.0000000000
      6276      2092  TIP3      H2            -17.3927971434       29.6135187879        8.1106485013  W2        2092            0.0000000000
      6277      2093  TIP3      OH2           -22.4631571434       26.5555787879        5.2769985013  W2        2093            0.0000000000
      6278      2093  TIP3      H1            -21.7513171434       25.9157987879        5.2629085013  W2        2093            0.0000000000
      6279      2093  TIP3      H2            -22.5641171434       26.8224087879        4.3633085013  W2        2093            0.0000000000
      6280      2094  TIP3      OH2           -22.1094071434       28.2384187879        7.3306285013  W2        2094            0.0000000000
      6281      2094  TIP3      H1            -22.2411871434       27.7627987879        6.5104785013  W2        2094            0.0000000000
      6282      2094  TIP3      H2            -22.7086671434       28.9827787879        7.2753385013  W2        2094            0.0000000000
      6283      2095  TIP3      OH2           -11.7963371434       27.1095687879        7.3407985013  W2        2095            0.0000000000
      6284      2095  TIP3      H1            -11.4466371434       26.4559187879        6.7352685013  W2        2095            0.0000000000
      6285      2095  TIP3      H2            -11.6493871434       27.9469787879        6.9010585013  W2        2095            0.0000000000
      6286      2096  TIP3      OH2           -14.1070371434       29.0742087879       -6.1763314987  W2        2096            0.0000000000
      6287      2096  TIP3      H1            -13.9245371434       28.6253587879       -5.3508314987  W2        2096            0.0000000000
      6288      2096  TIP3      H2            -14.7067471434       28.4896487879       -6.6398714987  W2        2096            0.0000000000
      6289      2097  TIP3      OH2           -28.5770271434       29.8895787879       -1.6444914987  W2        2097            0.0000000000
      6290      2097  TIP3      H1            -28.1318671434       29.0978287879       -1.3425214987  W2        2097            0.0000000000
      6291      2097  TIP3      H2            -28.1107271434       30.6060987879       -1.2139314987  W2        2097            0.0000000000
      6292      2098  TIP3      OH2           -12.2766171434       29.2190287879        5.6899285013  W2        2098            0.0000000000
      6293      2098  TIP3      H1            -13.1940471434       29.4897387879        5.6542785013  W2        2098            0.0000000000
      6294      2098  TIP3      H2            -12.1536771434       28.6838687879        4.9058985013  W2        2098            0.0000000000
      6295      2099  TIP3      OH2           -12.2404171434       29.1420187879       -9.6483014987  W2        2099            0.0000000000
      6296      2099  TIP3      H1            -11.8281571434       28.4205887879      -10.1235014987  W2        2099            0.0000000000
      6297      2099  TIP3      H2            -11.5587671434       29.8114787879       -9.5898714987  W2        2099            0.0000000000
      6298      2100  TIP3      OH2           -29.9593471434       29.1467887879       -6.5212314987  W2        2100            0.0000000000
      6299      2100  TIP3      H1            -30.8845071434       29.3554487879       -6.6506814987  W2        2100            0.0000000000
      6300      2100  TIP3      H2            -29.5053571434       29.6308687879       -7.2110014987  W2        2100            0.0000000000
      6301      2101  TIP3      OH2           -29.9958071434       27.8846887879        1.8230185013  W2        2101            0.0000000000
      6302      2101  TIP3      H1            -30.6607571434       27.6387187879        2.4661085013  W2        2101            0.0000000000
      6303      2101  TIP3      H2            -30.4386771434       28.5067287879        1.2458185013  W2        2101            0.0000000000
      6304      2102  TIP3      OH2           -13.2760271434       27.3086587879        3.5090085013  W2        2102            0.0000000000
      6305      2102  TIP3      H1            -14.0886771434       27.6336887879        3.1214785013  W2        2102            0.0000000000
      6306      2102  TIP3      H2            -13.0431771434       26.5485087879        2.9759185013  W2        2102            0.0000000000
      6307      2103  TIP3      OH2           -19.8461771434       28.7577187879       -2.1681714987  W2        2103            0.0000000000
      6308      2103  TIP3      H1            -20.5204971434       28.1282787879       -1.9125914987  W2        2103            0.0000000000
      6309      2103  TIP3      H2            -19.2822571434       28.2736087879       -2.7713814987  W2        2103            0.0000000000
      6310      2104  TIP3      OH2           -14.7034571434       26.8651187879       -2.0554614987  W2        2104            0.0000000000
      6311      2104  TIP3      H1            -14.0996971434       27.4126587879       -2.5573614987  W2        2104            0.0000000000
      6312      2104  TIP3      H2            -15.5732571434       27.1841587879       -2.2960514987  W2        2104            0.0000000000
      6313      2105  TIP3      OH2           -12.9764171434       28.0039887879       -3.7223714987  W2        2105            0.0000000000
      6314      2105  TIP3      H1            -12.3646671434       27.4895587879       -4.2490114987  W2        2105            0.0000000000
      6315      2105  TIP3      H2            -12.5940771434       28.8811987879       -3.6989314987  W2        2105            0.0000000000
      6316      2106  TIP3      OH2           -27.5194271434       27.3917487879       -4.3461814987  W2        2106            0.0000000000
      6317      2106  TIP3      H1            -28.2964471434       27.1572387879       -4.8535914987  W2        2106            0.0000000000
      6318      2106  TIP3      H2            -26.9890671434       26.5949587879       -4.3373814987  W2        2106            0.0000000000
      6319      2107  TIP3      OH2           -28.6830871434       27.1895587879       -8.5425714987  W2        2107            0.0000000000
      6320      2107  TIP3      H1            -28.2440171434       27.8006087879       -9.1342214987  W2        2107            0.0000000000
      6321      2107  TIP3      H2            -29.3168471434       27.7279687879       -8.0685714987  W2        2107            0.0000000000
      6322      2108  TIP3      OH2           -22.9401671434       27.3184587879       -4.5328714987  W2        2108            0.0000000000
      6323      2108  TIP3      H1            -22.0658271434       27.7068887879       -4.5624414987  W2        2108            0.0000000000
      6324      2108  TIP3      H2            -23.0760871434       27.1032387879       -3.6101514987  W2        2108            0.0000000000
      6325      2109  TIP3      OH2           -17.3833271434       27.3484387879       -2.8837014987  W2        2109            0.0000000000
      6326      2109  TIP3      H1            -17.3071671434       27.4435987879       -3.8331014987  W2        2109            0.0000000000
      6327      2109  TIP3      H2            -17.6584071434       26.4407287879       -2.7547914987  W2        2109            0.0000000000
      6328      2110  TIP3      OH2           -16.0300671434       27.3742187879       -7.1912014987  W2        2110            0.0000000000
      6329      2110  TIP3      H1            -16.7329571434       27.9891387879       -7.4010614987  W2        2110            0.0000000000
      6330      2110  TIP3      H2            -16.4749271434       26.5368887879       -7.0601114987  W2        2110            0.0000000000
      6331      2111  TIP3      OH2           -26.8221771434       29.1057087879      -10.1001614987  W2        2111            0.0000000000
      6332      2111  TIP3      H1            -26.3308371434       28.4759487879      -10.6276114987  W2        2111            0.0000000000
      6333      2111  TIP3      H2            -26.1985471434       29.4016487879       -9.4370414987  W2        2111            0.0000000000
      6334      2112  TIP3      OH2           -21.7961671434       29.3988587879       -7.6431114987  W2        2112            0.0000000000
      6335      2112  TIP3      H1            -21.6180371434       28.7521787879       -6.9602514987  W2        2112            0.0000000000
      6336      2112  TIP3      H2            -21.8495471434       30.2326287879       -7.1760014987  W2        2112            0.0000000000
      6337      2113  TIP3      OH2           -27.5616271434       27.9059387879        5.1714385013  W2        2113            0.0000000000
      6338      2113  TIP3      H1            -27.9278071434       27.1401987879        5.6139085013  W2        2113            0.0000000000
      6339      2113  TIP3      H2            -26.6487771434       27.9349587879        5.4579485013  W2        2113            0.0000000000
      6340      2114  TIP3      OH2           -25.5885471434       27.2563787879        6.7071485013  W2        2114            0.0000000000
      6341      2114  TIP3      H1            -24.6901871434       26.9823987879        6.5224885013  W2        2114            0.0000000000
      6342      2114  TIP3      H2            -25.9752371434       26.5139787879        7.1714085013  W2        2114            0.0000000000
      6343      2115  TIP3      OH2           -17.1673171434       26.5889087879        6.8894285013  W2        2115            0.0000000000
      6344      2115  TIP3      H1            -17.0905971434       26.1629787879        7.7431985013  W2        2115            0.0000000000
      6345      2115  TIP3      H2            -16.2736571434       26.6023787879        6.5467785013  W2        2115            0.0000000000
      6346      2116  TIP3      OH2             6.4003828566       29.8367187879        0.2981085013  W2        2116            0.0000000000
      6347      2116  TIP3      H1              6.4496028566       30.4468387879        1.0340185013  W2        2116            0.0000000000
      6348      2116  TIP3      H2              6.8258928566       30.2978087879       -0.4247814987  W2        2116            0.0000000000
      6349      2117  TIP3      OH2            -7.1568771434       29.6489087879        1.1115285013  W2        2117            0.0000000000
      6350      2117  TIP3      H1             -7.3757071434       30.1789687879        0.3451285013  W2        2117            0.0000000000
      6351      2117  TIP3      H2             -7.8247871434       29.8754587879        1.7586685013  W2        2117            0.0000000000
      6352      2118  TIP3      OH2             3.5190428566       30.1525587879       -2.5811314987  W2        2118            0.0000000000
      6353      2118  TIP3      H1              3.3038428566       29.3868987879       -2.0485314987  W2        2118            0.0000000000
      6354      2118  TIP3      H2              4.1747828566       30.6250187879       -2.0682814987  W2        2118            0.0000000000
      6355      2119  TIP3      OH2             3.8664528566       28.8676887879        1.0982185013  W2        2119            0.0000000000
      6356      2119  TIP3      H1              3.1303728566       29.4783987879        1.0603485013  W2        2119            0.0000000000
      6357      2119  TIP3      H2              4.5498528566       29.2825887879        0.5718585013  W2        2119            0.0000000000
      6358      2120  TIP3      OH2            -3.1304071434       26.9544187879       -1.4359814987  W2        2120            0.0000000000
      6359      2120  TIP3      H1             -3.2479871434       26.0060187879       -1.4901514987  W2        2120            0.0000000000
      6360      2120  TIP3      H2             -3.9853971434       27.2870287879       -1.1628714987  W2        2120            0.0000000000
      6361      2121  TIP3      OH2             5.1116428566       26.9136387879       -8.4857214987  W2        2121            0.0000000000
      6362      2121  TIP3      H1              4.2117128566       27.0525387879       -8.1906614987  W2        2121            0.0000000000
      6363      2121  TIP3      H2              5.3634828566       27.7450987879       -8.8875514987  W2        2121            0.0000000000
      6364      2122  TIP3      OH2            -5.8616471434       27.8578687879       -0.6583514987  W2        2122            0.0000000000
      6365      2122  TIP3      H1             -6.7232771434       27.7706887879       -1.0660614987  W2        2122            0.0000000000
      6366      2122  TIP3      H2             -5.8840771434       28.7138787879       -0.2305914987  W2        2122            0.0000000000
      6367      2123  TIP3      OH2            -1.1988671434       27.5799087879        2.7163485013  W2        2123            0.0000000000
      6368      2123  TIP3      H1             -0.7785571434       27.1646187879        3.4694085013  W2        2123            0.0000000000
      6369      2123  TIP3      H2             -2.1319071434       27.4012387879        2.8335485013  W2        2123            0.0000000000
      6370      2124  TIP3      OH2            -1.5371371434       30.0722487879       -9.9985714987  W2        2124            0.0000000000
      6371      2124  TIP3      H1             -1.7906571434       30.0914087879       -9.0757614987  W2        2124            0.0000000000
      6372      2124  TIP3      H2             -1.7939271434       29.2007887879      -10.2999514987  W2        2124            0.0000000000
      6373      2125  TIP3      OH2             1.2129928566       29.7067087879       -0.3007414987  W2        2125            0.0000000000
      6374      2125  TIP3      H1              0.5361528566       29.8380187879        0.3632285013  W2        2125            0.0000000000
      6375      2125  TIP3      H2              0.7274828566       29.5516587879       -1.1109714987  W2        2125            0.0000000000
      6376      2126  TIP3      OH2            -6.8702571434       29.3959887879       -5.2594814987  W2        2126            0.0000000000
      6377      2126  TIP3      H1             -7.1873071434       28.4935187879       -5.2949414987  W2        2126            0.0000000000
      6378      2126  TIP3      H2             -6.0888471434       29.3977287879       -5.8123214987  W2        2126            0.0000000000
      6379      2127  TIP3      OH2            -0.2002871434       30.1107487879        1.9533585013  W2        2127            0.0000000000
      6380      2127  TIP3      H1              0.4985028566       30.1846187879        2.6033285013  W2        2127            0.0000000000
      6381      2127  TIP3      H2             -0.5811471434       29.2462487879        2.1076485013  W2        2127            0.0000000000
      6382      2128  TIP3      OH2             0.5842028566       29.7629187879       -6.9494114987  W2        2128            0.0000000000
      6383      2128  TIP3      H1              0.8040328566       30.2344587879       -7.7528714987  W2        2128            0.0000000000
      6384      2128  TIP3      H2              1.1426028566       30.1571787879       -6.2793514987  W2        2128            0.0000000000
      6385      2129  TIP3      OH2            -1.3321371434       28.5720987879       -5.1764614987  W2        2129            0.0000000000
      6386      2129  TIP3      H1             -1.6787871434       29.1891587879       -4.5320314987  W2        2129            0.0000000000
      6387      2129  TIP3      H2             -0.6734471434       29.0726687879       -5.6579114987  W2        2129            0.0000000000
      6388      2130  TIP3      OH2            -5.6744371434       29.6350387879       -8.4892114987  W2        2130            0.0000000000
      6389      2130  TIP3      H1             -5.7579571434       30.5233487879       -8.1425714987  W2        2130            0.0000000000
      6390      2130  TIP3      H2             -4.7844071434       29.3697087879       -8.2575314987  W2        2130            0.0000000000
      6391      2131  TIP3      OH2            -8.2917871434       27.5082187879       -1.6397214987  W2        2131            0.0000000000
      6392      2131  TIP3      H1             -8.5208071434       27.5674687879       -2.5672214987  W2        2131            0.0000000000
      6393      2131  TIP3      H2             -8.7344471434       26.7167687879       -1.3333114987  W2        2131            0.0000000000
      6394      2132  TIP3      OH2            -4.6345171434       29.8052687879        2.1743585013  W2        2132            0.0000000000
      6395      2132  TIP3      H1             -4.0987671434       30.2569387879        1.5222885013  W2        2132            0.0000000000
      6396      2132  TIP3      H2             -5.4865571434       29.6972487879        1.7517685013  W2        2132            0.0000000000
      6397      2133  TIP3      OH2            -3.8289671434       27.2618387879        2.6057185013  W2        2133            0.0000000000
      6398      2133  TIP3      H1             -3.9270071434       28.2081587879        2.5003385013  W2        2133            0.0000000000
      6399      2133  TIP3      H2             -4.5713471434       26.8892187879        2.1300685013  W2        2133            0.0000000000
      6400      2134  TIP3      OH2             1.7848928566       29.3448387879        7.2500985013  W2        2134            0.0000000000
      6401      2134  TIP3      H1              1.6880728566       28.3925687879        7.2442885013  W2        2134            0.0000000000
      6402      2134  TIP3      H2              1.4632028566       29.6135187879        8.1106485013  W2        2134            0.0000000000
      6403      2135  TIP3      OH2            -3.6071571434       26.5555787879        5.2769985013  W2        2135            0.0000000000
      6404      2135  TIP3      H1             -2.8953171434       25.9157987879        5.2629085013  W2        2135            0.0000000000
      6405      2135  TIP3      H2             -3.7081171434       26.8224087879        4.3633085013  W2        2135            0.0000000000
      6406      2136  TIP3      OH2            -3.2534071434       28.2384187879        7.3306285013  W2        2136            0.0000000000
      6407      2136  TIP3      H1             -3.3851871434       27.7627987879        6.5104785013  W2        2136            0.0000000000
      6408      2136  TIP3      H2             -3.8526671434       28.9827787879        7.2753385013  W2        2136            0.0000000000
      6409      2137  TIP3      OH2             7.0596628566       27.1095687879        7.3407985013  W2        2137            0.0000000000
      6410      2137  TIP3      H1              7.4093628566       26.4559187879        6.7352685013  W2        2137            0.0000000000
      6411      2137  TIP3      H2              7.2066128566       27.9469787879        6.9010585013  W2        2137            0.0000000000
      6412      2138  TIP3      OH2             4.7489628566       29.0742087879       -6.1763314987  W2        2138            0.0000000000
      6413      2138  TIP3      H1              4.9314628566       28.6253587879       -5.3508314987  W2        2138            0.0000000000
      6414      2138  TIP3      H2              4.1492528566       28.4896487879       -6.6398714987  W2        2138            0.0000000000
      6415      2139  TIP3      OH2            -9.7210271434       29.8895787879       -1.6444914987  W2        2139            0.0000000000
      6416      2139  TIP3      H1             -9.2758671434       29.0978287879       -1.3425214987  W2        2139            0.0000000000
      6417      2139  TIP3      H2             -9.2547271434       30.6060987879       -1.2139314987  W2        2139            0.0000000000
      6418      2140  TIP3      OH2             6.5793828566       29.2190287879        5.6899285013  W2        2140            0.0000000000
      6419      2140  TIP3      H1              5.6619528566       29.4897387879        5.6542785013  W2        2140            0.0000000000
      6420      2140  TIP3      H2              6.7023228566       28.6838687879        4.9058985013  W2        2140            0.0000000000
      6421      2141  TIP3      OH2             6.6155828566       29.1420187879       -9.6483014987  W2        2141            0.0000000000
      6422      2141  TIP3      H1              7.0278428566       28.4205887879      -10.1235014987  W2        2141            0.0000000000
      6423      2141  TIP3      H2              7.2972328566       29.8114787879       -9.5898714987  W2        2141            0.0000000000
      6424      2142  TIP3      OH2           -11.1033471434       29.1467887879       -6.5212314987  W2        2142            0.0000000000
      6425      2142  TIP3      H1            -12.0285071434       29.3554487879       -6.6506814987  W2        2142            0.0000000000
      6426      2142  TIP3      H2            -10.6493571434       29.6308687879       -7.2110014987  W2        2142            0.0000000000
      6427      2143  TIP3      OH2           -11.1398071434       27.8846887879        1.8230185013  W2        2143            0.0000000000
      6428      2143  TIP3      H1            -11.8047571434       27.6387187879        2.4661085013  W2        2143            0.0000000000
      6429      2143  TIP3      H2            -11.5826771434       28.5067287879        1.2458185013  W2        2143            0.0000000000
      6430      2144  TIP3      OH2             5.5799728566       27.3086587879        3.5090085013  W2        2144            0.0000000000
      6431      2144  TIP3      H1              4.7673228566       27.6336887879        3.1214785013  W2        2144            0.0000000000
      6432      2144  TIP3      H2              5.8128228566       26.5485087879        2.9759185013  W2        2144            0.0000000000
      6433      2145  TIP3      OH2            -0.9901771434       28.7577187879       -2.1681714987  W2        2145            0.0000000000
      6434      2145  TIP3      H1             -1.6644971434       28.1282787879       -1.9125914987  W2        2145            0.0000000000
      6435      2145  TIP3      H2             -0.4262571434       28.2736087879       -2.7713814987  W2        2145            0.0000000000
      6436      2146  TIP3      OH2             4.1525428566       26.8651187879       -2.0554614987  W2        2146            0.0000000000
      6437      2146  TIP3      H1              4.7563028566       27.4126587879       -2.5573614987  W2        2146            0.0000000000
      6438      2146  TIP3      H2              3.2827428566       27.1841587879       -2.2960514987  W2        2146            0.0000000000
      6439      2147  TIP3      OH2             5.8795828566       28.0039887879       -3.7223714987  W2        2147            0.0000000000
      6440      2147  TIP3      H1              6.4913328566       27.4895587879       -4.2490114987  W2        2147            0.0000000000
      6441      2147  TIP3      H2              6.2619228566       28.8811987879       -3.6989314987  W2        2147            0.0000000000
      6442      2148  TIP3      OH2            -8.6634271434       27.3917487879       -4.3461814987  W2        2148            0.0000000000
      6443      2148  TIP3      H1             -9.4404471434       27.1572387879       -4.8535914987  W2        2148            0.0000000000
      6444      2148  TIP3      H2             -8.1330671434       26.5949587879       -4.3373814987  W2        2148            0.0000000000
      6445      2149  TIP3      OH2            -9.8270871434       27.1895587879       -8.5425714987  W2        2149            0.0000000000
      6446      2149  TIP3      H1             -9.3880171434       27.8006087879       -9.1342214987  W2        2149            0.0000000000
      6447      2149  TIP3      H2            -10.4608471434       27.7279687879       -8.0685714987  W2        2149            0.0000000000
      6448      2150  TIP3      OH2            -4.0841671434       27.3184587879       -4.5328714987  W2        2150            0.0000000000
      6449      2150  TIP3      H1             -3.2098271434       27.7068887879       -4.5624414987  W2        2150            0.0000000000
      6450      2150  TIP3      H2             -4.2200871434       27.1032387879       -3.6101514987  W2        2150            0.0000000000
      6451      2151  TIP3      OH2             1.4726728566       27.3484387879       -2.8837014987  W2        2151            0.0000000000
      6452      2151  TIP3      H1              1.5488328566       27.4435987879       -3.8331014987  W2        2151            0.0000000000
      6453      2151  TIP3      H2              1.1975928566       26.4407287879       -2.7547914987  W2        2151            0.0000000000
      6454      2152  TIP3      OH2             2.8259328566       27.3742187879       -7.1912014987  W2        2152            0.0000000000
      6455      2152  TIP3      H1              2.1230428566       27.9891387879       -7.4010614987  W2        2152            0.0000000000
      6456      2152  TIP3      H2              2.3810728566       26.5368887879       -7.0601114987  W2        2152            0.0000000000
      6457      2153  TIP3      OH2            -7.9661771434       29.1057087879      -10.1001614987  W2        2153            0.0000000000
      6458      2153  TIP3      H1             -7.4748371434       28.4759487879      -10.6276114987  W2        2153            0.0000000000
      6459      2153  TIP3      H2             -7.3425471434       29.4016487879       -9.4370414987  W2        2153            0.0000000000
      6460      2154  TIP3      OH2            -2.9401671434       29.3988587879       -7.6431114987  W2        2154            0.0000000000
      6461      2154  TIP3      H1             -2.7620371434       28.7521787879       -6.9602514987  W2        2154            0.0000000000
      6462      2154  TIP3      H2             -2.9935471434       30.2326287879       -7.1760014987  W2        2154            0.0000000000
      6463      2155  TIP3      OH2            -8.7056271434       27.9059387879        5.1714385013  W2        2155            0.0000000000
      6464      2155  TIP3      H1             -9.0718071434       27.1401987879        5.6139085013  W2        2155            0.0000000000
      6465      2155  TIP3      H2             -7.7927771434       27.9349587879        5.4579485013  W2        2155            0.0000000000
      6466      2156  TIP3      OH2            -6.7325471434       27.2563787879        6.7071485013  W2        2156            0.0000000000
      6467      2156  TIP3      H1             -5.8341871434       26.9823987879        6.5224885013  W2        2156            0.0000000000
      6468      2156  TIP3      H2             -7.1192371434       26.5139787879        7.1714085013  W2        2156            0.0000000000
      6469      2157  TIP3      OH2             1.6886828566       26.5889087879        6.8894285013  W2        2157            0.0000000000
      6470      2157  TIP3      H1              1.7654028566       26.1629787879        7.7431985013  W2        2157            0.0000000000
      6471      2157  TIP3      H2              2.5823428566       26.6023787879        6.5467785013  W2        2157            0.0000000000
      6472      2158  TIP3      OH2            25.2563828566       29.8367187879        0.2981085013  W2        2158            0.0000000000
      6473      2158  TIP3      H1             25.3056028566       30.4468387879        1.0340185013  W2        2158            0.0000000000
      6474      2158  TIP3      H2             25.6818928566       30.2978087879       -0.4247814987  W2        2158            0.0000000000
      6475      2159  TIP3      OH2            11.6991228566       29.6489087879        1.1115285013  W2        2159            0.0000000000
      6476      2159  TIP3      H1             11.4802928566       30.1789687879        0.3451285013  W2        2159            0.0000000000
      6477      2159  TIP3      H2             11.0312128566       29.8754587879        1.7586685013  W2        2159            0.0000000000
      6478      2160  TIP3      OH2            22.3750428566       30.1525587879       -2.5811314987  W2        2160            0.0000000000
      6479      2160  TIP3      H1             22.1598428566       29.3868987879       -2.0485314987  W2        2160            0.0000000000
      6480      2160  TIP3      H2             23.0307828566       30.6250187879       -2.0682814987  W2        2160            0.0000000000
      6481      2161  TIP3      OH2            22.7224528566       28.8676887879        1.0982185013  W2        2161            0.0000000000
      6482      2161  TIP3      H1             21.9863728566       29.4783987879        1.0603485013  W2        2161            0.0000000000
      6483      2161  TIP3      H2             23.4058528566       29.2825887879        0.5718585013  W2        2161            0.0000000000
      6484      2162  TIP3      OH2            15.7255928566       26.9544187879       -1.4359814987  W2        2162            0.0000000000
      6485      2162  TIP3      H1             15.6080128566       26.0060187879       -1.4901514987  W2        2162            0.0000000000
      6486      2162  TIP3      H2             14.8706028566       27.2870287879       -1.1628714987  W2        2162            0.0000000000
      6487      2163  TIP3      OH2            23.9676428566       26.9136387879       -8.4857214987  W2        2163            0.0000000000
      6488      2163  TIP3      H1             23.0677128566       27.0525387879       -8.1906614987  W2        2163            0.0000000000
      6489      2163  TIP3      H2             24.2194828566       27.7450987879       -8.8875514987  W2        2163            0.0000000000
      6490      2164  TIP3      OH2            12.9943528566       27.8578687879       -0.6583514987  W2        2164            0.0000000000
      6491      2164  TIP3      H1             12.1327228566       27.7706887879       -1.0660614987  W2        2164            0.0000000000
      6492      2164  TIP3      H2             12.9719228566       28.7138787879       -0.2305914987  W2        2164            0.0000000000
      6493      2165  TIP3      OH2            17.6571328566       27.5799087879        2.7163485013  W2        2165            0.0000000000
      6494      2165  TIP3      H1             18.0774428566       27.1646187879        3.4694085013  W2        2165            0.0000000000
      6495      2165  TIP3      H2             16.7240928566       27.4012387879        2.8335485013  W2        2165            0.0000000000
      6496      2166  TIP3      OH2            17.3188628566       30.0722487879       -9.9985714987  W2        2166            0.0000000000
      6497      2166  TIP3      H1             17.0653428566       30.0914087879       -9.0757614987  W2        2166            0.0000000000
      6498      2166  TIP3      H2             17.0620728566       29.2007887879      -10.2999514987  W2        2166            0.0000000000
      6499      2167  TIP3      OH2            20.0689928566       29.7067087879       -0.3007414987  W2        2167            0.0000000000
      6500      2167  TIP3      H1             19.3921528566       29.8380187879        0.3632285013  W2        2167            0.0000000000
      6501      2167  TIP3      H2             19.5834828566       29.5516587879       -1.1109714987  W2        2167            0.0000000000
      6502      2168  TIP3      OH2            11.9857428566       29.3959887879       -5.2594814987  W2        2168            0.0000000000
      6503      2168  TIP3      H1             11.6686928566       28.4935187879       -5.2949414987  W2        2168            0.0000000000
      6504      2168  TIP3      H2             12.7671528566       29.3977287879       -5.8123214987  W2        2168            0.0000000000
      6505      2169  TIP3      OH2            18.6557128566       30.1107487879        1.9533585013  W2        2169            0.0000000000
      6506      2169  TIP3      H1             19.3545028566       30.1846187879        2.6033285013  W2        2169            0.0000000000
      6507      2169  TIP3      H2             18.2748528566       29.2462487879        2.1076485013  W2        2169            0.0000000000
      6508      2170  TIP3      OH2            19.4402028566       29.7629187879       -6.9494114987  W2        2170            0.0000000000
      6509      2170  TIP3      H1             19.6600328566       30.2344587879       -7.7528714987  W2        2170            0.0000000000
      6510      2170  TIP3      H2             19.9986028566       30.1571787879       -6.2793514987  W2        2170            0.0000000000
      6511      2171  TIP3      OH2            17.5238628566       28.5720987879       -5.1764614987  W2        2171            0.0000000000
      6512      2171  TIP3      H1             17.1772128566       29.1891587879       -4.5320314987  W2        2171            0.0000000000
      6513      2171  TIP3      H2             18.1825528566       29.0726687879       -5.6579114987  W2        2171            0.0000000000
      6514      2172  TIP3      OH2            13.1815628566       29.6350387879       -8.4892114987  W2        2172            0.0000000000
      6515      2172  TIP3      H1             13.0980428566       30.5233487879       -8.1425714987  W2        2172            0.0000000000
      6516      2172  TIP3      H2             14.0715928566       29.3697087879       -8.2575314987  W2        2172            0.0000000000
      6517      2173  TIP3      OH2            10.5642128566       27.5082187879       -1.6397214987  W2        2173            0.0000000000
      6518      2173  TIP3      H1             10.3351928566       27.5674687879       -2.5672214987  W2        2173            0.0000000000
      6519      2173  TIP3      H2             10.1215528566       26.7167687879       -1.3333114987  W2        2173            0.0000000000
      6520      2174  TIP3      OH2            14.2214828566       29.8052687879        2.1743585013  W2        2174            0.0000000000
      6521      2174  TIP3      H1             14.7572328566       30.2569387879        1.5222885013  W2        2174            0.0000000000
      6522      2174  TIP3      H2             13.3694428566       29.6972487879        1.7517685013  W2        2174            0.0000000000
      6523      2175  TIP3      OH2            15.0270328566       27.2618387879        2.6057185013  W2        2175            0.0000000000
      6524      2175  TIP3      H1             14.9289928566       28.2081587879        2.5003385013  W2        2175            0.0000000000
      6525      2175  TIP3      H2             14.2846528566       26.8892187879        2.1300685013  W2        2175            0.0000000000
      6526      2176  TIP3      OH2            20.6408928566       29.3448387879        7.2500985013  W2        2176            0.0000000000
      6527      2176  TIP3      H1             20.5440728566       28.3925687879        7.2442885013  W2        2176            0.0000000000
      6528      2176  TIP3      H2             20.3192028566       29.6135187879        8.1106485013  W2        2176            0.0000000000
      6529      2177  TIP3      OH2            15.2488428566       26.5555787879        5.2769985013  W2        2177            0.0000000000
      6530      2177  TIP3      H1             15.9606828566       25.9157987879        5.2629085013  W2        2177            0.0000000000
      6531      2177  TIP3      H2             15.1478828566       26.8224087879        4.3633085013  W2        2177            0.0000000000
      6532      2178  TIP3      OH2            15.6025928566       28.2384187879        7.3306285013  W2        2178            0.0000000000
      6533      2178  TIP3      H1             15.4708128566       27.7627987879        6.5104785013  W2        2178            0.0000000000
      6534      2178  TIP3      H2             15.0033328566       28.9827787879        7.2753385013  W2        2178            0.0000000000
      6535      2179  TIP3      OH2            25.9156628566       27.1095687879        7.3407985013  W2        2179            0.0000000000
      6536      2179  TIP3      H1             26.2653628566       26.4559187879        6.7352685013  W2        2179            0.0000000000
      6537      2179  TIP3      H2             26.0626128566       27.9469787879        6.9010585013  W2        2179            0.0000000000
      6538      2180  TIP3      OH2            23.6049628566       29.0742087879       -6.1763314987  W2        2180            0.0000000000
      6539      2180  TIP3      H1             23.7874628566       28.6253587879       -5.3508314987  W2        2180            0.0000000000
      6540      2180  TIP3      H2             23.0052528566       28.4896487879       -6.6398714987  W2        2180            0.0000000000
      6541      2181  TIP3      OH2             9.1349728566       29.8895787879       -1.6444914987  W2        2181            0.0000000000
      6542      2181  TIP3      H1              9.5801328566       29.0978287879       -1.3425214987  W2        2181            0.0000000000
      6543      2181  TIP3      H2              9.6012728566       30.6060987879       -1.2139314987  W2        2181            0.0000000000
      6544      2182  TIP3      OH2            25.4353828566       29.2190287879        5.6899285013  W2        2182            0.0000000000
      6545      2182  TIP3      H1             24.5179528566       29.4897387879        5.6542785013  W2        2182            0.0000000000
      6546      2182  TIP3      H2             25.5583228566       28.6838687879        4.9058985013  W2        2182            0.0000000000
      6547      2183  TIP3      OH2            25.4715828566       29.1420187879       -9.6483014987  W2        2183            0.0000000000
      6548      2183  TIP3      H1             25.8838428566       28.4205887879      -10.1235014987  W2        2183            0.0000000000
      6549      2183  TIP3      H2             26.1532328566       29.8114787879       -9.5898714987  W2        2183            0.0000000000
      6550      2184  TIP3      OH2             7.7526528566       29.1467887879       -6.5212314987  W2        2184            0.0000000000
      6551      2184  TIP3      H1              6.8274928566       29.3554487879       -6.6506814987  W2        2184            0.0000000000
      6552      2184  TIP3      H2              8.2066428566       29.6308687879       -7.2110014987  W2        2184            0.0000000000
      6553      2185  TIP3      OH2             7.7161928566       27.8846887879        1.8230185013  W2        2185            0.0000000000
      6554      2185  TIP3      H1              7.0512428566       27.6387187879        2.4661085013  W2        2185            0.0000000000
      6555      2185  TIP3      H2              7.2733228566       28.5067287879        1.2458185013  W2        2185            0.0000000000
      6556      2186  TIP3      OH2            24.4359728566       27.3086587879        3.5090085013  W2        2186            0.0000000000
      6557      2186  TIP3      H1             23.6233228566       27.6336887879        3.1214785013  W2        2186            0.0000000000
      6558      2186  TIP3      H2             24.6688228566       26.5485087879        2.9759185013  W2        2186            0.0000000000
      6559      2187  TIP3      OH2            17.8658228566       28.7577187879       -2.1681714987  W2        2187            0.0000000000
      6560      2187  TIP3      H1             17.1915028566       28.1282787879       -1.9125914987  W2        2187            0.0000000000
      6561      2187  TIP3      H2             18.4297428566       28.2736087879       -2.7713814987  W2        2187            0.0000000000
      6562      2188  TIP3      OH2            23.0085428566       26.8651187879       -2.0554614987  W2        2188            0.0000000000
      6563      2188  TIP3      H1             23.6123028566       27.4126587879       -2.5573614987  W2        2188            0.0000000000
      6564      2188  TIP3      H2             22.1387428566       27.1841587879       -2.2960514987  W2        2188            0.0000000000
      6565      2189  TIP3      OH2            24.7355828566       28.0039887879       -3.7223714987  W2        2189            0.0000000000
      6566      2189  TIP3      H1             25.3473328566       27.4895587879       -4.2490114987  W2        2189            0.0000000000
      6567      2189  TIP3      H2             25.1179228566       28.8811987879       -3.6989314987  W2        2189            0.0000000000
      6568      2190  TIP3      OH2            10.1925728566       27.3917487879       -4.3461814987  W2        2190            0.0000000000
      6569      2190  TIP3      H1              9.4155528566       27.1572387879       -4.8535914987  W2        2190            0.0000000000
      6570      2190  TIP3      H2             10.7229328566       26.5949587879       -4.3373814987  W2        2190            0.0000000000
      6571      2191  TIP3      OH2             9.0289128566       27.1895587879       -8.5425714987  W2        2191            0.0000000000
      6572      2191  TIP3      H1              9.4679828566       27.8006087879       -9.1342214987  W2        2191            0.0000000000
      6573      2191  TIP3      H2              8.3951528566       27.7279687879       -8.0685714987  W2        2191            0.0000000000
      6574      2192  TIP3      OH2            14.7718328566       27.3184587879       -4.5328714987  W2        2192            0.0000000000
      6575      2192  TIP3      H1             15.6461728566       27.7068887879       -4.5624414987  W2        2192            0.0000000000
      6576      2192  TIP3      H2             14.6359128566       27.1032387879       -3.6101514987  W2        2192            0.0000000000
      6577      2193  TIP3      OH2            20.3286728566       27.3484387879       -2.8837014987  W2        2193            0.0000000000
      6578      2193  TIP3      H1             20.4048328566       27.4435987879       -3.8331014987  W2        2193            0.0000000000
      6579      2193  TIP3      H2             20.0535928566       26.4407287879       -2.7547914987  W2        2193            0.0000000000
      6580      2194  TIP3      OH2            21.6819328566       27.3742187879       -7.1912014987  W2        2194            0.0000000000
      6581      2194  TIP3      H1             20.9790428566       27.9891387879       -7.4010614987  W2        2194            0.0000000000
      6582      2194  TIP3      H2             21.2370728566       26.5368887879       -7.0601114987  W2        2194            0.0000000000
      6583      2195  TIP3      OH2            10.8898228566       29.1057087879      -10.1001614987  W2        2195            0.0000000000
      6584      2195  TIP3      H1             11.3811628566       28.4759487879      -10.6276114987  W2        2195            0.0000000000
      6585      2195  TIP3      H2             11.5134528566       29.4016487879       -9.4370414987  W2        2195            0.0000000000
      6586      2196  TIP3      OH2            15.9158328566       29.3988587879       -7.6431114987  W2        2196            0.0000000000
      6587      2196  TIP3      H1             16.0939628566       28.7521787879       -6.9602514987  W2        2196            0.0000000000
      6588      2196  TIP3      H2             15.8624528566       30.2326287879       -7.1760014987  W2        2196            0.0000000000
      6589      2197  TIP3      OH2            10.1503728566       27.9059387879        5.1714385013  W2        2197            0.0000000000
      6590      2197  TIP3      H1              9.7841928566       27.1401987879        5.6139085013  W2        2197            0.0000000000
      6591      2197  TIP3      H2             11.0632228566       27.9349587879        5.4579485013  W2        2197            0.0000000000
      6592      2198  TIP3      OH2            12.1234528566       27.2563787879        6.7071485013  W2        2198            0.0000000000
      6593      2198  TIP3      H1             13.0218128566       26.9823987879        6.5224885013  W2        2198            0.0000000000
      6594      2198  TIP3      H2             11.7367628566       26.5139787879        7.1714085013  W2        2198            0.0000000000
      6595      2199  TIP3      OH2            20.5446828566       26.5889087879        6.8894285013  W2        2199            0.0000000000
      6596      2199  TIP3      H1             20.6214028566       26.1629787879        7.7431985013  W2        2199            0.0000000000
      6597      2199  TIP3      H2             21.4383428566       26.6023787879        6.5467785013  W2        2199            0.0000000000
      6598      2200  TIP3      OH2            29.4202128566       27.5082187879       -1.6397214987  W2        2200            0.0000000000
      6599      2200  TIP3      H1             29.1911928566       27.5674687879       -2.5672214987  W2        2200            0.0000000000
      6600      2200  TIP3      H2             28.9775528566       26.7167687879       -1.3333114987  W2        2200            0.0000000000
      6601      2201  TIP3      OH2            27.9909728566       29.8895787879       -1.6444914987  W2        2201            0.0000000000
      6602      2201  TIP3      H1             28.4361328566       29.0978287879       -1.3425214987  W2        2201            0.0000000000
      6603      2201  TIP3      H2             28.4572728566       30.6060987879       -1.2139314987  W2        2201            0.0000000000
      6604      2202  TIP3      OH2            26.6086528566       29.1467887879       -6.5212314987  W2        2202            0.0000000000
      6605      2202  TIP3      H1             25.6834928566       29.3554487879       -6.6506814987  W2        2202            0.0000000000
      6606      2202  TIP3      H2             27.0626428566       29.6308687879       -7.2110014987  W2        2202            0.0000000000
      6607      2203  TIP3      OH2            26.5721928566       27.8846887879        1.8230185013  W2        2203            0.0000000000
      6608      2203  TIP3      H1             25.9072428566       27.6387187879        2.4661085013  W2        2203            0.0000000000
      6609      2203  TIP3      H2             26.1293228566       28.5067287879        1.2458185013  W2        2203            0.0000000000
      6610      2204  TIP3      OH2            29.0485728566       27.3917487879       -4.3461814987  W2        2204            0.0000000000
      6611      2204  TIP3      H1             28.2715528566       27.1572387879       -4.8535914987  W2        2204            0.0000000000
      6612      2204  TIP3      H2             29.5789328566       26.5949587879       -4.3373814987  W2        2204            0.0000000000
      6613      2205  TIP3      OH2            27.8849128566       27.1895587879       -8.5425714987  W2        2205            0.0000000000
      6614      2205  TIP3      H1             28.3239828566       27.8006087879       -9.1342214987  W2        2205            0.0000000000
      6615      2205  TIP3      H2             27.2511528566       27.7279687879       -8.0685714987  W2        2205            0.0000000000
      6616      2206  TIP3      OH2            29.7458228566       29.1057087879      -10.1001614987  W2        2206            0.0000000000
      6617      2206  TIP3      H1             30.2371628566       28.4759487879      -10.6276114987  W2        2206            0.0000000000
      6618      2206  TIP3      H2             30.3694528566       29.4016487879       -9.4370414987  W2        2206            0.0000000000
      6619      2207  TIP3      OH2            29.0063728566       27.9059387879        5.1714385013  W2        2207            0.0000000000
      6620      2207  TIP3      H1             28.6401928566       27.1401987879        5.6139085013  W2        2207            0.0000000000
      6621      2207  TIP3      H2             29.9192228566       27.9349587879        5.4579485013  W2        2207            0.0000000000
      6622      2208  TIP3      OH2           -19.6659971434      -22.3185912121        8.9590985013  W2        2238            0.0000000000
      6623      2208  TIP3      H1            -18.9650071434      -22.2959012121        9.6104985013  W2        2238            0.0000000000
      6624      2208  TIP3      H2            -19.3637071434      -22.9466212121        8.3030285013  W2        2238            0.0000000000
      6625      2209  TIP3      OH2           -17.4431971434      -21.4044012121       10.5573085013  W2        2247            0.0000000000
      6626      2209  TIP3      H1            -16.8636471434      -21.2543712121       11.3041985013  W2        2247            0.0000000000
      6627      2209  TIP3      H2            -17.0291971434      -20.9336612121        9.8339485013  W2        2247            0.0000000000
      6628      2210  TIP3      OH2           -13.7443571434      -29.6543612121       10.3702785013  W2        2251            0.0000000000
      6629      2210  TIP3      H1            -14.6442871434      -29.5154612121       10.6653385013  W2        2251            0.0000000000
      6630      2210  TIP3      H2            -13.4925171434      -28.8229012121        9.9684485013  W2        2251            0.0000000000
      6631      2211  TIP3      OH2           -12.5552171434      -15.2881212121        8.7466685013  W2        2253            0.0000000000
      6632      2211  TIP3      H1            -12.4818671434      -14.3491012121        8.9171985013  W2        2253            0.0000000000
      6633      2211  TIP3      H2            -11.6497071434      -15.5932612121        8.6903985013  W2        2253            0.0000000000
      6634      2212  TIP3      OH2           -17.1427971434      -12.5570612121        9.4097785013  W2        2260            0.0000000000
      6635      2212  TIP3      H1            -16.7679571434      -13.3014512121        8.9390385013  W2        2260            0.0000000000
      6636      2212  TIP3      H2            -17.1384271434      -12.8270012121       10.3281085013  W2        2260            0.0000000000
      6637      2213  TIP3      OH2           -15.9658871434      -20.3715712121        8.1870985013  W2        2267            0.0000000000
      6638      2213  TIP3      H1            -15.9238071434      -20.5941812121        7.2570985013  W2        2267            0.0000000000
      6639      2213  TIP3      H2            -15.1166771434      -19.9728612121        8.3770885013  W2        2267            0.0000000000
      6640      2214  TIP3      OH2           -20.3931371434      -26.4957512121        8.8574285013  W2        2268            0.0000000000
      6641      2214  TIP3      H1            -20.6466571434      -26.4765912121        9.7802385013  W2        2268            0.0000000000
      6642      2214  TIP3      H2            -20.6499271434      -27.3672112121        8.5560485013  W2        2268            0.0000000000
      6643      2215  TIP3      OH2           -23.5108471434      -26.0501012121        7.9584685013  W2        2275            0.0000000000
      6644      2215  TIP3      H1            -23.9417771434      -26.4950912121        8.6882085013  W2        2275            0.0000000000
      6645      2215  TIP3      H2            -24.2289771434      -25.6784712121        7.4462185013  W2        2275            0.0000000000
      6646      2216  TIP3      OH2           -28.9942971434      -25.5619512121       10.4343785013  W2        2277            0.0000000000
      6647      2216  TIP3      H1            -28.5201271434      -24.9709612121        9.8494685013  W2        2277            0.0000000000
      6648      2216  TIP3      H2            -29.7116571434      -25.0316612121       10.7813885013  W2        2277            0.0000000000
      6649      2217  TIP3      OH2           -24.8926571434      -23.2728112121        9.3409085013  W2        2283            0.0000000000
      6650      2217  TIP3      H1            -25.4351471434      -23.6524312121        8.6496685013  W2        2283            0.0000000000
      6651      2217  TIP3      H2            -24.0591671434      -23.0783412121        8.9123185013  W2        2283            0.0000000000
      6652      2218  TIP3      OH2           -17.6596971434      -25.8932512121        9.4759785013  W2        2291            0.0000000000
      6653      2218  TIP3      H1            -18.5982771434      -25.7816912121        9.3248585013  W2        2291            0.0000000000
      6654      2218  TIP3      H2            -17.3624871434      -25.0365612121        9.7825485013  W2        2291            0.0000000000
      6655      2219  TIP3      OH2           -16.9413471434      -24.0259812121       11.1367185013  W2        2293            0.0000000000
      6656      2219  TIP3      H1            -16.0494471434      -24.1634812121       11.4558385013  W2        2293            0.0000000000
      6657      2219  TIP3      H2            -16.8849871434      -23.2353712121       10.6000685013  W2        2293            0.0000000000
      6658      2220  TIP3      OH2           -19.4319671434      -17.2488112121       10.3021785013  W2        2295            0.0000000000
      6659      2220  TIP3      H1            -19.7271271434      -16.4220212121       10.6836585013  W2        2295            0.0000000000
      6660      2220  TIP3      H2            -20.1349671434      -17.8681212121       10.4983185013  W2        2295            0.0000000000
      6661      2221  TIP3      OH2           -12.0564771434      -23.8165712121       10.8313885013  W2        2299            0.0000000000
      6662      2221  TIP3      H1            -12.6108471434      -24.2127712121       10.1591385013  W2        2299            0.0000000000
      6663      2221  TIP3      H2            -11.9561171434      -22.9060512121       10.5537185013  W2        2299            0.0000000000
      6664      2222  TIP3      OH2           -28.3028371434      -21.0320112121        9.0378985013  W2        2304            0.0000000000
      6665      2222  TIP3      H1            -27.6868471434      -20.4052912121        9.4173785013  W2        2304            0.0000000000
      6666      2222  TIP3      H2            -29.1645771434      -20.7160312121        9.3095485013  W2        2304            0.0000000000
      6667      2223  TIP3      OH2           -16.3687471434      -17.0539512121        9.1166585013  W2        2309            0.0000000000
      6668      2223  TIP3      H1            -16.0154371434      -17.4339712121        9.9210085013  W2        2309            0.0000000000
      6669      2223  TIP3      H2            -17.3173971434      -17.1474712121        9.2035885013  W2        2309            0.0000000000
      6670      2224  TIP3      OH2           -11.8653071434      -12.5747012121        9.3176785013  W2        2311            0.0000000000
      6671      2224  TIP3      H1            -11.1215171434      -11.9886512121        9.1778385013  W2        2311            0.0000000000
      6672      2224  TIP3      H2            -12.5594971434      -12.0061212121        9.6509185013  W2        2311            0.0000000000
      6673      2225  TIP3      OH2           -22.2779671434      -15.9423412121        7.5636585013  W2        2315            0.0000000000
      6674      2225  TIP3      H1            -22.0389871434      -16.6905312121        7.0165485013  W2        2315            0.0000000000
      6675      2225  TIP3      H2            -22.5468371434      -16.3301712121        8.3964385013  W2        2315            0.0000000000
      6676      2226  TIP3      OH2           -23.3409071434      -16.3719612121       10.0199185013  W2        2316            0.0000000000
      6677      2226  TIP3      H1            -23.1941071434      -16.8919812121       10.8100085013  W2        2316            0.0000000000
      6678      2226  TIP3      H2            -23.3437371434      -15.4652012121       10.3265085013  W2        2316            0.0000000000
      6679      2227  TIP3      OH2           -26.8877971434      -19.1196312121       10.5304585013  W2        2317            0.0000000000
      6680      2227  TIP3      H1            -27.5738671434      -18.7673812121       11.0974285013  W2        2317            0.0000000000
      6681      2227  TIP3      H2            -26.3650071434      -18.3566712121       10.2838885013  W2        2317            0.0000000000
      6682      2228  TIP3      OH2           -20.6031871434      -14.6746012121       10.7693385013  W2        2320            0.0000000000
      6683      2228  TIP3      H1            -21.4195771434      -14.1776312121       10.8217685013  W2        2320            0.0000000000
      6684      2228  TIP3      H2            -20.0735571434      -14.1992512121       10.1292185013  W2        2320            0.0000000000
      6685      2229  TIP3      OH2           -23.2648771434      -13.6308812121       10.7510285013  W2        2324            0.0000000000
      6686      2229  TIP3      H1            -23.1040071434      -12.8311312121       10.2502885013  W2        2324            0.0000000000
      6687      2229  TIP3      H2            -23.4620971434      -13.3242812121       11.6360885013  W2        2324            0.0000000000
      6688      2230  TIP3      OH2           -24.5304371434      -26.9329612121       10.3667885013  W2        2325            0.0000000000
      6689      2230  TIP3      H1            -24.6139571434      -26.0446512121       10.7134285013  W2        2325            0.0000000000
      6690      2230  TIP3      H2            -23.6404071434      -27.1982912121       10.5984685013  W2        2325            0.0000000000
      6691      2231  TIP3      OH2           -26.2719071434      -16.5057412121        9.4272385013  W2        2328            0.0000000000
      6692      2231  TIP3      H1            -25.6797571434      -15.8062612121        9.7034785013  W2        2328            0.0000000000
      6693      2231  TIP3      H2            -25.8126071434      -16.9387912121        8.7076985013  W2        2328            0.0000000000
      6694      2232  TIP3      OH2           -27.9559871434      -23.8414412121        8.5431785013  W2        2329            0.0000000000
      6695      2232  TIP3      H1            -28.0007271434      -22.9021312121        8.7218785013  W2        2329            0.0000000000
      6696      2232  TIP3      H2            -28.8436671434      -24.0769512121        8.2733885013  W2        2329            0.0000000000
      6697      2233  TIP3      OH2           -20.2397871434      -14.0792012121        7.7022585013  W2        2335            0.0000000000
      6698      2233  TIP3      H1            -20.8836871434      -14.7103412121        8.0236285013  W2        2335            0.0000000000
      6699      2233  TIP3      H2            -19.4779571434      -14.6104012121        7.4706085013  W2        2335            0.0000000000
      6700      2234  TIP3      OH2           -15.6354971434      -14.2622112121        7.9360585013  W2        2337            0.0000000000
      6701      2234  TIP3      H1            -15.3524571434      -15.0566912121        8.3887485013  W2        2337            0.0000000000
      6702      2234  TIP3      H2            -14.8957071434      -14.0291112121        7.3751685013  W2        2337            0.0000000000
      6703      2235  TIP3      OH2           -24.6807671434      -18.3527212121        7.7935485013  W2        2339            0.0000000000
      6704      2235  TIP3      H1            -24.6163571434      -19.1467612121        8.3241885013  W2        2339            0.0000000000
      6705      2235  TIP3      H2            -24.0278471434      -18.4714412121        7.1037485013  W2        2339            0.0000000000
      6706      2236  TIP3      OH2           -19.3284271434      -17.3055512121        7.5293485013  W2        2341            0.0000000000
      6707      2236  TIP3      H1            -19.5970171434      -17.1253412121        8.4302385013  W2        2341            0.0000000000
      6708      2236  TIP3      H2            -19.5348671434      -18.2309312121        7.3979285013  W2        2341            0.0000000000
      6709      2237  TIP3      OH2           -23.5313871434      -20.3801012121       10.0993485013  W2        2344            0.0000000000
      6710      2237  TIP3      H1            -23.9911871434      -20.8642712121       10.7851985013  W2        2344            0.0000000000
      6711      2237  TIP3      H2            -23.2765171434      -21.0485612121        9.4633985013  W2        2344            0.0000000000
      6712      2238  TIP3      OH2           -22.4603471434      -22.1369212121        8.3616685013  W2        2346            0.0000000000
      6713      2238  TIP3      H1            -22.6408471434      -22.2918012121        7.4344985013  W2        2346            0.0000000000
      6714      2238  TIP3      H2            -21.5102971434      -22.0290512121        8.4064585013  W2        2346            0.0000000000
      6715      2239  TIP3      OH2           -13.0705171434      -19.7825012121        7.8074785013  W2        2348            0.0000000000
      6716      2239  TIP3      H1            -13.3440371434      -20.2069512121        6.9943085013  W2        2348            0.0000000000
      6717      2239  TIP3      H2            -13.0311071434      -18.8510512121        7.5905185013  W2        2348            0.0000000000
      6718      2240  TIP3      OH2           -22.5631771434      -11.4465512121        9.3630285013  W2        2362            0.0000000000
      6719      2240  TIP3      H1            -21.6301071434      -11.2886812121        9.5068685013  W2        2362            0.0000000000
      6720      2240  TIP3      H2            -22.8272971434      -10.7712512121        8.7381785013  W2        2362            0.0000000000
      6721      2241  TIP3      OH2           -28.9946871434      -16.8101712121        8.8458385013  W2        2363            0.0000000000
      6722      2241  TIP3      H1            -28.0807671434      -16.7312812121        9.1192285013  W2        2363            0.0000000000
      6723      2241  TIP3      H2            -28.9873771434      -17.4972112121        8.1793985013  W2        2363            0.0000000000
      6724      2242  TIP3      OH2           -11.9493671434      -20.9591012121        9.9972185013  W2        2373            0.0000000000
      6725      2242  TIP3      H1            -12.4712571434      -20.6026912121        9.2783085013  W2        2373            0.0000000000
      6726      2242  TIP3      H2            -11.9824471434      -20.2843212121       10.6753085013  W2        2373            0.0000000000
      6727      2243  TIP3      OH2           -13.6004671434      -23.7195412121        8.5479285013  W2        2374            0.0000000000
      6728      2243  TIP3      H1            -13.5040271434      -23.0528412121        7.8678985013  W2        2374            0.0000000000
      6729      2243  TIP3      H2            -13.7405071434      -24.5349112121        8.0664785013  W2        2374            0.0000000000
      6730      2244  TIP3      OH2           -14.3530871434      -26.3115612121        7.6654785013  W2        2379            0.0000000000
      6731      2244  TIP3      H1            -13.7425071434      -26.6828812121        8.3022985013  W2        2379            0.0000000000
      6732      2244  TIP3      H2            -15.1899371434      -26.7328712121        7.8614785013  W2        2379            0.0000000000
      6733      2245  TIP3      OH2           -12.2404171434      -27.4259812121        9.2076985013  W2        2389            0.0000000000
      6734      2245  TIP3      H1            -11.8281571434      -28.1474112121        8.7324985013  W2        2389            0.0000000000
      6735      2245  TIP3      H2            -11.5587671434      -26.7565212121        9.2661285013  W2        2389            0.0000000000
      6736      2246  TIP3      OH2           -28.6830871434      -29.3784412121       10.3134285013  W2        2410            0.0000000000
      6737      2246  TIP3      H1            -28.2440171434      -28.7673912121        9.7217785013  W2        2410            0.0000000000
      6738      2246  TIP3      H2            -29.3168471434      -28.8400312121       10.7874285013  W2        2410            0.0000000000
      6739      2247  TIP3      OH2           -26.8221771434      -27.4622912121        8.7558385013  W2        2415            0.0000000000
      6740      2247  TIP3      H1            -26.3308371434      -28.0920512121        8.2283885013  W2        2415            0.0000000000
      6741      2247  TIP3      H2            -26.1985471434      -27.1663512121        9.4189585013  W2        2415            0.0000000000
      6742      2248  TIP3      OH2           -19.9177871434      -12.2207312121        9.6085585013  W2        2417            0.0000000000
      6743      2248  TIP3      H1            -19.0517671434      -11.8539912121        9.4303785013  W2        2417            0.0000000000
      6744      2248  TIP3      H2            -20.1645071434      -12.6599312121        8.7946385013  W2        2417            0.0000000000
      6745      2249  TIP3      OH2           -26.9640171434      -12.5101412121        8.2361485013  W2        2421            0.0000000000
      6746      2249  TIP3      H1            -27.2315571434      -12.2238512121        9.1094585013  W2        2421            0.0000000000
      6747      2249  TIP3      H2            -26.1927571434      -13.0562212121        8.3883985013  W2        2421            0.0000000000
      6748      2250  TIP3      OH2            -0.8099971434      -22.3185912121        8.9590985013  W2        2454            0.0000000000
      6749      2250  TIP3      H1             -0.1090071434      -22.2959012121        9.6104985013  W2        2454            0.0000000000
      6750      2250  TIP3      H2             -0.5077071434      -22.9466212121        8.3030285013  W2        2454            0.0000000000
      6751      2251  TIP3      OH2             1.4128028566      -21.4044012121       10.5573085013  W2        2463            0.0000000000
      6752      2251  TIP3      H1              1.9923528566      -21.2543712121       11.3041985013  W2        2463            0.0000000000
      6753      2251  TIP3      H2              1.8268028566      -20.9336612121        9.8339485013  W2        2463            0.0000000000
      6754      2252  TIP3      OH2             5.1116428566      -29.6543612121       10.3702785013  W2        2467            0.0000000000
      6755      2252  TIP3      H1              4.2117128566      -29.5154612121       10.6653385013  W2        2467            0.0000000000
      6756      2252  TIP3      H2              5.3634828566      -28.8229012121        9.9684485013  W2        2467            0.0000000000
      6757      2253  TIP3      OH2             6.3007828566      -15.2881212121        8.7466685013  W2        2469            0.0000000000
      6758      2253  TIP3      H1              6.3741328566      -14.3491012121        8.9171985013  W2        2469            0.0000000000
      6759      2253  TIP3      H2              7.2062928566      -15.5932612121        8.6903985013  W2        2469            0.0000000000
      6760      2254  TIP3      OH2             1.7132028566      -12.5570612121        9.4097785013  W2        2476            0.0000000000
      6761      2254  TIP3      H1              2.0880428566      -13.3014512121        8.9390385013  W2        2476            0.0000000000
      6762      2254  TIP3      H2              1.7175728566      -12.8270012121       10.3281085013  W2        2476            0.0000000000
      6763      2255  TIP3      OH2             2.8901128566      -20.3715712121        8.1870985013  W2        2483            0.0000000000
      6764      2255  TIP3      H1              2.9321928566      -20.5941812121        7.2570985013  W2        2483            0.0000000000
      6765      2255  TIP3      H2              3.7393228566      -19.9728612121        8.3770885013  W2        2483            0.0000000000
      6766      2256  TIP3      OH2            -1.5371371434      -26.4957512121        8.8574285013  W2        2484            0.0000000000
      6767      2256  TIP3      H1             -1.7906571434      -26.4765912121        9.7802385013  W2        2484            0.0000000000
      6768      2256  TIP3      H2             -1.7939271434      -27.3672112121        8.5560485013  W2        2484            0.0000000000
      6769      2257  TIP3      OH2            -4.6548471434      -26.0501012121        7.9584685013  W2        2491            0.0000000000
      6770      2257  TIP3      H1             -5.0857771434      -26.4950912121        8.6882085013  W2        2491            0.0000000000
      6771      2257  TIP3      H2             -5.3729771434      -25.6784712121        7.4462185013  W2        2491            0.0000000000
      6772      2258  TIP3      OH2           -10.1382971434      -25.5619512121       10.4343785013  W2        2493            0.0000000000
      6773      2258  TIP3      H1             -9.6641271434      -24.9709612121        9.8494685013  W2        2493            0.0000000000
      6774      2258  TIP3      H2            -10.8556571434      -25.0316612121       10.7813885013  W2        2493            0.0000000000
      6775      2259  TIP3      OH2            -6.0366571434      -23.2728112121        9.3409085013  W2        2499            0.0000000000
      6776      2259  TIP3      H1             -6.5791471434      -23.6524312121        8.6496685013  W2        2499            0.0000000000
      6777      2259  TIP3      H2             -5.2031671434      -23.0783412121        8.9123185013  W2        2499            0.0000000000
      6778      2260  TIP3      OH2             1.1963028566      -25.8932512121        9.4759785013  W2        2507            0.0000000000
      6779      2260  TIP3      H1              0.2577228566      -25.7816912121        9.3248585013  W2        2507            0.0000000000
      6780      2260  TIP3      H2              1.4935128566      -25.0365612121        9.7825485013  W2        2507            0.0000000000
      6781      2261  TIP3      OH2             1.9146528566      -24.0259812121       11.1367185013  W2        2509            0.0000000000
      6782      2261  TIP3      H1              2.8065528566      -24.1634812121       11.4558385013  W2        2509            0.0000000000
      6783      2261  TIP3      H2              1.9710128566      -23.2353712121       10.6000685013  W2        2509            0.0000000000
      6784      2262  TIP3      OH2            -0.5759671434      -17.2488112121       10.3021785013  W2        2511            0.0000000000
      6785      2262  TIP3      H1             -0.8711271434      -16.4220212121       10.6836585013  W2        2511            0.0000000000
      6786      2262  TIP3      H2             -1.2789671434      -17.8681212121       10.4983185013  W2        2511            0.0000000000
      6787      2263  TIP3      OH2             6.7995228566      -23.8165712121       10.8313885013  W2        2515            0.0000000000
      6788      2263  TIP3      H1              6.2451528566      -24.2127712121       10.1591385013  W2        2515            0.0000000000
      6789      2263  TIP3      H2              6.8998828566      -22.9060512121       10.5537185013  W2        2515            0.0000000000
      6790      2264  TIP3      OH2            -9.4468371434      -21.0320112121        9.0378985013  W2        2520            0.0000000000
      6791      2264  TIP3      H1             -8.8308471434      -20.4052912121        9.4173785013  W2        2520            0.0000000000
      6792      2264  TIP3      H2            -10.3085771434      -20.7160312121        9.3095485013  W2        2520            0.0000000000
      6793      2265  TIP3      OH2             2.4872528566      -17.0539512121        9.1166585013  W2        2525            0.0000000000
      6794      2265  TIP3      H1              2.8405628566      -17.4339712121        9.9210085013  W2        2525            0.0000000000
      6795      2265  TIP3      H2              1.5386028566      -17.1474712121        9.2035885013  W2        2525            0.0000000000
      6796      2266  TIP3      OH2             6.9906928566      -12.5747012121        9.3176785013  W2        2527            0.0000000000
      6797      2266  TIP3      H1              7.7344828566      -11.9886512121        9.1778385013  W2        2527            0.0000000000
      6798      2266  TIP3      H2              6.2965028566      -12.0061212121        9.6509185013  W2        2527            0.0000000000
      6799      2267  TIP3      OH2            -3.4219671434      -15.9423412121        7.5636585013  W2        2531            0.0000000000
      6800      2267  TIP3      H1             -3.1829871434      -16.6905312121        7.0165485013  W2        2531            0.0000000000
      6801      2267  TIP3      H2             -3.6908371434      -16.3301712121        8.3964385013  W2        2531            0.0000000000
      6802      2268  TIP3      OH2            -4.4849071434      -16.3719612121       10.0199185013  W2        2532            0.0000000000
      6803      2268  TIP3      H1             -4.3381071434      -16.8919812121       10.8100085013  W2        2532            0.0000000000
      6804      2268  TIP3      H2             -4.4877371434      -15.4652012121       10.3265085013  W2        2532            0.0000000000
      6805      2269  TIP3      OH2            -8.0317971434      -19.1196312121       10.5304585013  W2        2533            0.0000000000
      6806      2269  TIP3      H1             -8.7178671434      -18.7673812121       11.0974285013  W2        2533            0.0000000000
      6807      2269  TIP3      H2             -7.5090071434      -18.3566712121       10.2838885013  W2        2533            0.0000000000
      6808      2270  TIP3      OH2            -1.7471871434      -14.6746012121       10.7693385013  W2        2536            0.0000000000
      6809      2270  TIP3      H1             -2.5635771434      -14.1776312121       10.8217685013  W2        2536            0.0000000000
      6810      2270  TIP3      H2             -1.2175571434      -14.1992512121       10.1292185013  W2        2536            0.0000000000
      6811      2271  TIP3      OH2            -4.4088771434      -13.6308812121       10.7510285013  W2        2540            0.0000000000
      6812      2271  TIP3      H1             -4.2480071434      -12.8311312121       10.2502885013  W2        2540            0.0000000000
      6813      2271  TIP3      H2             -4.6060971434      -13.3242812121       11.6360885013  W2        2540            0.0000000000
      6814      2272  TIP3      OH2            -5.6744371434      -26.9329612121       10.3667885013  W2        2541            0.0000000000
      6815      2272  TIP3      H1             -5.7579571434      -26.0446512121       10.7134285013  W2        2541            0.0000000000
      6816      2272  TIP3      H2             -4.7844071434      -27.1982912121       10.5984685013  W2        2541            0.0000000000
      6817      2273  TIP3      OH2            -7.4159071434      -16.5057412121        9.4272385013  W2        2544            0.0000000000
      6818      2273  TIP3      H1             -6.8237571434      -15.8062612121        9.7034785013  W2        2544            0.0000000000
      6819      2273  TIP3      H2             -6.9566071434      -16.9387912121        8.7076985013  W2        2544            0.0000000000
      6820      2274  TIP3      OH2            -9.0999871434      -23.8414412121        8.5431785013  W2        2545            0.0000000000
      6821      2274  TIP3      H1             -9.1447271434      -22.9021312121        8.7218785013  W2        2545            0.0000000000
      6822      2274  TIP3      H2             -9.9876671434      -24.0769512121        8.2733885013  W2        2545            0.0000000000
      6823      2275  TIP3      OH2            -1.3837871434      -14.0792012121        7.7022585013  W2        2551            0.0000000000
      6824      2275  TIP3      H1             -2.0276871434      -14.7103412121        8.0236285013  W2        2551            0.0000000000
      6825      2275  TIP3      H2             -0.6219571434      -14.6104012121        7.4706085013  W2        2551            0.0000000000
      6826      2276  TIP3      OH2             3.2205028566      -14.2622112121        7.9360585013  W2        2553            0.0000000000
      6827      2276  TIP3      H1              3.5035428566      -15.0566912121        8.3887485013  W2        2553            0.0000000000
      6828      2276  TIP3      H2              3.9602928566      -14.0291112121        7.3751685013  W2        2553            0.0000000000
      6829      2277  TIP3      OH2            -5.8247671434      -18.3527212121        7.7935485013  W2        2555            0.0000000000
      6830      2277  TIP3      H1             -5.7603571434      -19.1467612121        8.3241885013  W2        2555            0.0000000000
      6831      2277  TIP3      H2             -5.1718471434      -18.4714412121        7.1037485013  W2        2555            0.0000000000
      6832      2278  TIP3      OH2            -0.4724271434      -17.3055512121        7.5293485013  W2        2557            0.0000000000
      6833      2278  TIP3      H1             -0.7410171434      -17.1253412121        8.4302385013  W2        2557            0.0000000000
      6834      2278  TIP3      H2             -0.6788671434      -18.2309312121        7.3979285013  W2        2557            0.0000000000
      6835      2279  TIP3      OH2            -4.6753871434      -20.3801012121       10.0993485013  W2        2560            0.0000000000
      6836      2279  TIP3      H1             -5.1351871434      -20.8642712121       10.7851985013  W2        2560            0.0000000000
      6837      2279  TIP3      H2             -4.4205171434      -21.0485612121        9.4633985013  W2        2560            0.0000000000
      6838      2280  TIP3      OH2            -3.6043471434      -22.1369212121        8.3616685013  W2        2562            0.0000000000
      6839      2280  TIP3      H1             -3.7848471434      -22.2918012121        7.4344985013  W2        2562            0.0000000000
      6840      2280  TIP3      H2             -2.6542971434      -22.0290512121        8.4064585013  W2        2562            0.0000000000
      6841      2281  TIP3      OH2             5.7854828566      -19.7825012121        7.8074785013  W2        2564            0.0000000000
      6842      2281  TIP3      H1              5.5119628566      -20.2069512121        6.9943085013  W2        2564            0.0000000000
      6843      2281  TIP3      H2              5.8248928566      -18.8510512121        7.5905185013  W2        2564            0.0000000000
      6844      2282  TIP3      OH2            -3.7071771434      -11.4465512121        9.3630285013  W2        2578            0.0000000000
      6845      2282  TIP3      H1             -2.7741071434      -11.2886812121        9.5068685013  W2        2578            0.0000000000
      6846      2282  TIP3      H2             -3.9712971434      -10.7712512121        8.7381785013  W2        2578            0.0000000000
      6847      2283  TIP3      OH2           -10.1386871434      -16.8101712121        8.8458385013  W2        2579            0.0000000000
      6848      2283  TIP3      H1             -9.2247671434      -16.7312812121        9.1192285013  W2        2579            0.0000000000
      6849      2283  TIP3      H2            -10.1313771434      -17.4972112121        8.1793985013  W2        2579            0.0000000000
      6850      2284  TIP3      OH2             6.9066328566      -20.9591012121        9.9972185013  W2        2589            0.0000000000
      6851      2284  TIP3      H1              6.3847428566      -20.6026912121        9.2783085013  W2        2589            0.0000000000
      6852      2284  TIP3      H2              6.8735528566      -20.2843212121       10.6753085013  W2        2589            0.0000000000
      6853      2285  TIP3      OH2             5.2555328566      -23.7195412121        8.5479285013  W2        2590            0.0000000000
      6854      2285  TIP3      H1              5.3519728566      -23.0528412121        7.8678985013  W2        2590            0.0000000000
      6855      2285  TIP3      H2              5.1154928566      -24.5349112121        8.0664785013  W2        2590            0.0000000000
      6856      2286  TIP3      OH2             4.5029128566      -26.3115612121        7.6654785013  W2        2595            0.0000000000
      6857      2286  TIP3      H1              5.1134928566      -26.6828812121        8.3022985013  W2        2595            0.0000000000
      6858      2286  TIP3      H2              3.6660628566      -26.7328712121        7.8614785013  W2        2595            0.0000000000
      6859      2287  TIP3      OH2             6.6155828566      -27.4259812121        9.2076985013  W2        2605            0.0000000000
      6860      2287  TIP3      H1              7.0278428566      -28.1474112121        8.7324985013  W2        2605            0.0000000000
      6861      2287  TIP3      H2              7.2972328566      -26.7565212121        9.2661285013  W2        2605            0.0000000000
      6862      2288  TIP3      OH2            -9.8270871434      -29.3784412121       10.3134285013  W2        2626            0.0000000000
      6863      2288  TIP3      H1             -9.3880171434      -28.7673912121        9.7217785013  W2        2626            0.0000000000
      6864      2288  TIP3      H2            -10.4608471434      -28.8400312121       10.7874285013  W2        2626            0.0000000000
      6865      2289  TIP3      OH2            -7.9661771434      -27.4622912121        8.7558385013  W2        2631            0.0000000000
      6866      2289  TIP3      H1             -7.4748371434      -28.0920512121        8.2283885013  W2        2631            0.0000000000
      6867      2289  TIP3      H2             -7.3425471434      -27.1663512121        9.4189585013  W2        2631            0.0000000000
      6868      2290  TIP3      OH2            -1.0617871434      -12.2207312121        9.6085585013  W2        2633            0.0000000000
      6869      2290  TIP3      H1             -0.1957671434      -11.8539912121        9.4303785013  W2        2633            0.0000000000
      6870      2290  TIP3      H2             -1.3085071434      -12.6599312121        8.7946385013  W2        2633            0.0000000000
      6871      2291  TIP3      OH2            -8.1080171434      -12.5101412121        8.2361485013  W2        2637            0.0000000000
      6872      2291  TIP3      H1             -8.3755571434      -12.2238512121        9.1094585013  W2        2637            0.0000000000
      6873      2291  TIP3      H2             -7.3367571434      -13.0562212121        8.3883985013  W2        2637            0.0000000000
      6874      2292  TIP3      OH2            18.0460028566      -22.3185912121        8.9590985013  W2        2670            0.0000000000
      6875      2292  TIP3      H1             18.7469928566      -22.2959012121        9.6104985013  W2        2670            0.0000000000
      6876      2292  TIP3      H2             18.3482928566      -22.9466212121        8.3030285013  W2        2670            0.0000000000
      6877      2293  TIP3      OH2            20.2688028566      -21.4044012121       10.5573085013  W2        2679            0.0000000000
      6878      2293  TIP3      H1             20.8483528566      -21.2543712121       11.3041985013  W2        2679            0.0000000000
      6879      2293  TIP3      H2             20.6828028566      -20.9336612121        9.8339485013  W2        2679            0.0000000000
      6880      2294  TIP3      OH2            23.9676428566      -29.6543612121       10.3702785013  W2        2683            0.0000000000
      6881      2294  TIP3      H1             23.0677128566      -29.5154612121       10.6653385013  W2        2683            0.0000000000
      6882      2294  TIP3      H2             24.2194828566      -28.8229012121        9.9684485013  W2        2683            0.0000000000
      6883      2295  TIP3      OH2            25.1567828566      -15.2881212121        8.7466685013  W2        2685            0.0000000000
      6884      2295  TIP3      H1             25.2301328566      -14.3491012121        8.9171985013  W2        2685            0.0000000000
      6885      2295  TIP3      H2             26.0622928566      -15.5932612121        8.6903985013  W2        2685            0.0000000000
      6886      2296  TIP3      OH2            20.5692028566      -12.5570612121        9.4097785013  W2        2692            0.0000000000
      6887      2296  TIP3      H1             20.9440428566      -13.3014512121        8.9390385013  W2        2692            0.0000000000
      6888      2296  TIP3      H2             20.5735728566      -12.8270012121       10.3281085013  W2        2692            0.0000000000
      6889      2297  TIP3      OH2            21.7461128566      -20.3715712121        8.1870985013  W2        2699            0.0000000000
      6890      2297  TIP3      H1             21.7881928566      -20.5941812121        7.2570985013  W2        2699            0.0000000000
      6891      2297  TIP3      H2             22.5953228566      -19.9728612121        8.3770885013  W2        2699            0.0000000000
      6892      2298  TIP3      OH2            17.3188628566      -26.4957512121        8.8574285013  W2        2700            0.0000000000
      6893      2298  TIP3      H1             17.0653428566      -26.4765912121        9.7802385013  W2        2700            0.0000000000
      6894      2298  TIP3      H2             17.0620728566      -27.3672112121        8.5560485013  W2        2700            0.0000000000
      6895      2299  TIP3      OH2            14.2011528566      -26.0501012121        7.9584685013  W2        2707            0.0000000000
      6896      2299  TIP3      H1             13.7702228566      -26.4950912121        8.6882085013  W2        2707            0.0000000000
      6897      2299  TIP3      H2             13.4830228566      -25.6784712121        7.4462185013  W2        2707            0.0000000000
      6898      2300  TIP3      OH2             8.7177028566      -25.5619512121       10.4343785013  W2        2709            0.0000000000
      6899      2300  TIP3      H1              9.1918728566      -24.9709612121        9.8494685013  W2        2709            0.0000000000
      6900      2300  TIP3      H2              8.0003428566      -25.0316612121       10.7813885013  W2        2709            0.0000000000
      6901      2301  TIP3      OH2            12.8193428566      -23.2728112121        9.3409085013  W2        2715            0.0000000000
      6902      2301  TIP3      H1             12.2768528566      -23.6524312121        8.6496685013  W2        2715            0.0000000000
      6903      2301  TIP3      H2             13.6528328566      -23.0783412121        8.9123185013  W2        2715            0.0000000000
      6904      2302  TIP3      OH2            20.0523028566      -25.8932512121        9.4759785013  W2        2723            0.0000000000
      6905      2302  TIP3      H1             19.1137228566      -25.7816912121        9.3248585013  W2        2723            0.0000000000
      6906      2302  TIP3      H2             20.3495128566      -25.0365612121        9.7825485013  W2        2723            0.0000000000
      6907      2303  TIP3      OH2            20.7706528566      -24.0259812121       11.1367185013  W2        2725            0.0000000000
      6908      2303  TIP3      H1             21.6625528566      -24.1634812121       11.4558385013  W2        2725            0.0000000000
      6909      2303  TIP3      H2             20.8270128566      -23.2353712121       10.6000685013  W2        2725            0.0000000000
      6910      2304  TIP3      OH2            18.2800328566      -17.2488112121       10.3021785013  W2        2727            0.0000000000
      6911      2304  TIP3      H1             17.9848728566      -16.4220212121       10.6836585013  W2        2727            0.0000000000
      6912      2304  TIP3      H2             17.5770328566      -17.8681212121       10.4983185013  W2        2727            0.0000000000
      6913      2305  TIP3      OH2            25.6555228566      -23.8165712121       10.8313885013  W2        2731            0.0000000000
      6914      2305  TIP3      H1             25.1011528566      -24.2127712121       10.1591385013  W2        2731            0.0000000000
      6915      2305  TIP3      H2             25.7558828566      -22.9060512121       10.5537185013  W2        2731            0.0000000000
      6916      2306  TIP3      OH2             9.4091628566      -21.0320112121        9.0378985013  W2        2736            0.0000000000
      6917      2306  TIP3      H1             10.0251528566      -20.4052912121        9.4173785013  W2        2736            0.0000000000
      6918      2306  TIP3      H2              8.5474228566      -20.7160312121        9.3095485013  W2        2736            0.0000000000
      6919      2307  TIP3      OH2            21.3432528566      -17.0539512121        9.1166585013  W2        2741            0.0000000000
      6920      2307  TIP3      H1             21.6965628566      -17.4339712121        9.9210085013  W2        2741            0.0000000000
      6921      2307  TIP3      H2             20.3946028566      -17.1474712121        9.2035885013  W2        2741            0.0000000000
      6922      2308  TIP3      OH2            25.8466928566      -12.5747012121        9.3176785013  W2        2743            0.0000000000
      6923      2308  TIP3      H1             26.5904828566      -11.9886512121        9.1778385013  W2        2743            0.0000000000
      6924      2308  TIP3      H2             25.1525028566      -12.0061212121        9.6509185013  W2        2743            0.0000000000
      6925      2309  TIP3      OH2            15.4340328566      -15.9423412121        7.5636585013  W2        2747            0.0000000000
      6926      2309  TIP3      H1             15.6730128566      -16.6905312121        7.0165485013  W2        2747            0.0000000000
      6927      2309  TIP3      H2             15.1651628566      -16.3301712121        8.3964385013  W2        2747            0.0000000000
      6928      2310  TIP3      OH2            14.3710928566      -16.3719612121       10.0199185013  W2        2748            0.0000000000
      6929      2310  TIP3      H1             14.5178928566      -16.8919812121       10.8100085013  W2        2748            0.0000000000
      6930      2310  TIP3      H2             14.3682628566      -15.4652012121       10.3265085013  W2        2748            0.0000000000
      6931      2311  TIP3      OH2            10.8242028566      -19.1196312121       10.5304585013  W2        2749            0.0000000000
      6932      2311  TIP3      H1             10.1381328566      -18.7673812121       11.0974285013  W2        2749            0.0000000000
      6933      2311  TIP3      H2             11.3469928566      -18.3566712121       10.2838885013  W2        2749            0.0000000000
      6934      2312  TIP3      OH2            17.1088128566      -14.6746012121       10.7693385013  W2        2752            0.0000000000
      6935      2312  TIP3      H1             16.2924228566      -14.1776312121       10.8217685013  W2        2752            0.0000000000
      6936      2312  TIP3      H2             17.6384428566      -14.1992512121       10.1292185013  W2        2752            0.0000000000
      6937      2313  TIP3      OH2            14.4471228566      -13.6308812121       10.7510285013  W2        2756            0.0000000000
      6938      2313  TIP3      H1             14.6079928566      -12.8311312121       10.2502885013  W2        2756            0.0000000000
      6939      2313  TIP3      H2             14.2499028566      -13.3242812121       11.6360885013  W2        2756            0.0000000000
      6940      2314  TIP3      OH2            13.1815628566      -26.9329612121       10.3667885013  W2        2757            0.0000000000
      6941      2314  TIP3      H1             13.0980428566      -26.0446512121       10.7134285013  W2        2757            0.0000000000
      6942      2314  TIP3      H2             14.0715928566      -27.1982912121       10.5984685013  W2        2757            0.0000000000
      6943      2315  TIP3      OH2            11.4400928566      -16.5057412121        9.4272385013  W2        2760            0.0000000000
      6944      2315  TIP3      H1             12.0322428566      -15.8062612121        9.7034785013  W2        2760            0.0000000000
      6945      2315  TIP3      H2             11.8993928566      -16.9387912121        8.7076985013  W2        2760            0.0000000000
      6946      2316  TIP3      OH2             9.7560128566      -23.8414412121        8.5431785013  W2        2761            0.0000000000
      6947      2316  TIP3      H1              9.7112728566      -22.9021312121        8.7218785013  W2        2761            0.0000000000
      6948      2316  TIP3      H2              8.8683328566      -24.0769512121        8.2733885013  W2        2761            0.0000000000
      6949      2317  TIP3      OH2            17.4722128566      -14.0792012121        7.7022585013  W2        2767            0.0000000000
      6950      2317  TIP3      H1             16.8283128566      -14.7103412121        8.0236285013  W2        2767            0.0000000000
      6951      2317  TIP3      H2             18.2340428566      -14.6104012121        7.4706085013  W2        2767            0.0000000000
      6952      2318  TIP3      OH2            22.0765028566      -14.2622112121        7.9360585013  W2        2769            0.0000000000
      6953      2318  TIP3      H1             22.3595428566      -15.0566912121        8.3887485013  W2        2769            0.0000000000
      6954      2318  TIP3      H2             22.8162928566      -14.0291112121        7.3751685013  W2        2769            0.0000000000
      6955      2319  TIP3      OH2            13.0312328566      -18.3527212121        7.7935485013  W2        2771            0.0000000000
      6956      2319  TIP3      H1             13.0956428566      -19.1467612121        8.3241885013  W2        2771            0.0000000000
      6957      2319  TIP3      H2             13.6841528566      -18.4714412121        7.1037485013  W2        2771            0.0000000000
      6958      2320  TIP3      OH2            18.3835728566      -17.3055512121        7.5293485013  W2        2773            0.0000000000
      6959      2320  TIP3      H1             18.1149828566      -17.1253412121        8.4302385013  W2        2773            0.0000000000
      6960      2320  TIP3      H2             18.1771328566      -18.2309312121        7.3979285013  W2        2773            0.0000000000
      6961      2321  TIP3      OH2            14.1806128566      -20.3801012121       10.0993485013  W2        2776            0.0000000000
      6962      2321  TIP3      H1             13.7208128566      -20.8642712121       10.7851985013  W2        2776            0.0000000000
      6963      2321  TIP3      H2             14.4354828566      -21.0485612121        9.4633985013  W2        2776            0.0000000000
      6964      2322  TIP3      OH2            15.2516528566      -22.1369212121        8.3616685013  W2        2778            0.0000000000
      6965      2322  TIP3      H1             15.0711528566      -22.2918012121        7.4344985013  W2        2778            0.0000000000
      6966      2322  TIP3      H2             16.2017028566      -22.0290512121        8.4064585013  W2        2778            0.0000000000
      6967      2323  TIP3      OH2            24.6414828566      -19.7825012121        7.8074785013  W2        2780            0.0000000000
      6968      2323  TIP3      H1             24.3679628566      -20.2069512121        6.9943085013  W2        2780            0.0000000000
      6969      2323  TIP3      H2             24.6808928566      -18.8510512121        7.5905185013  W2        2780            0.0000000000
      6970      2324  TIP3      OH2            15.1488228566      -11.4465512121        9.3630285013  W2        2794            0.0000000000
      6971      2324  TIP3      H1             16.0818928566      -11.2886812121        9.5068685013  W2        2794            0.0000000000
      6972      2324  TIP3      H2             14.8847028566      -10.7712512121        8.7381785013  W2        2794            0.0000000000
      6973      2325  TIP3      OH2             8.7173128566      -16.8101712121        8.8458385013  W2        2795            0.0000000000
      6974      2325  TIP3      H1              9.6312328566      -16.7312812121        9.1192285013  W2        2795            0.0000000000
      6975      2325  TIP3      H2              8.7246228566      -17.4972112121        8.1793985013  W2        2795            0.0000000000
      6976      2326  TIP3      OH2            25.7626328566      -20.9591012121        9.9972185013  W2        2805            0.0000000000
      6977      2326  TIP3      H1             25.2407428566      -20.6026912121        9.2783085013  W2        2805            0.0000000000
      6978      2326  TIP3      H2             25.7295528566      -20.2843212121       10.6753085013  W2        2805            0.0000000000
      6979      2327  TIP3      OH2            24.1115328566      -23.7195412121        8.5479285013  W2        2806            0.0000000000
      6980      2327  TIP3      H1             24.2079728566      -23.0528412121        7.8678985013  W2        2806            0.0000000000
      6981      2327  TIP3      H2             23.9714928566      -24.5349112121        8.0664785013  W2        2806            0.0000000000
      6982      2328  TIP3      OH2            23.3589128566      -26.3115612121        7.6654785013  W2        2811            0.0000000000
      6983      2328  TIP3      H1             23.9694928566      -26.6828812121        8.3022985013  W2        2811            0.0000000000
      6984      2328  TIP3      H2             22.5220628566      -26.7328712121        7.8614785013  W2        2811            0.0000000000
      6985      2329  TIP3      OH2            25.4715828566      -27.4259812121        9.2076985013  W2        2821            0.0000000000
      6986      2329  TIP3      H1             25.8838428566      -28.1474112121        8.7324985013  W2        2821            0.0000000000
      6987      2329  TIP3      H2             26.1532328566      -26.7565212121        9.2661285013  W2        2821            0.0000000000
      6988      2330  TIP3      OH2             9.0289128566      -29.3784412121       10.3134285013  W2        2842            0.0000000000
      6989      2330  TIP3      H1              9.4679828566      -28.7673912121        9.7217785013  W2        2842            0.0000000000
      6990      2330  TIP3      H2              8.3951528566      -28.8400312121       10.7874285013  W2        2842            0.0000000000
      6991      2331  TIP3      OH2            10.8898228566      -27.4622912121        8.7558385013  W2        2847            0.0000000000
      6992      2331  TIP3      H1             11.3811628566      -28.0920512121        8.2283885013  W2        2847            0.0000000000
      6993      2331  TIP3      H2             11.5134528566      -27.1663512121        9.4189585013  W2        2847            0.0000000000
      6994      2332  TIP3      OH2            17.7942128566      -12.2207312121        9.6085585013  W2        2849            0.0000000000
      6995      2332  TIP3      H1             18.6602328566      -11.8539912121        9.4303785013  W2        2849            0.0000000000
      6996      2332  TIP3      H2             17.5474928566      -12.6599312121        8.7946385013  W2        2849            0.0000000000
      6997      2333  TIP3      OH2            10.7479828566      -12.5101412121        8.2361485013  W2        2853            0.0000000000
      6998      2333  TIP3      H1             10.4804428566      -12.2238512121        9.1094585013  W2        2853            0.0000000000
      6999      2333  TIP3      H2             11.5192428566      -13.0562212121        8.3883985013  W2        2853            0.0000000000
      7000      2334  TIP3      OH2            27.5737028566      -25.5619512121       10.4343785013  W2        2866            0.0000000000
      7001      2334  TIP3      H1             28.0478728566      -24.9709612121        9.8494685013  W2        2866            0.0000000000
      7002      2334  TIP3      H2             26.8563428566      -25.0316612121       10.7813885013  W2        2866            0.0000000000
      7003      2335  TIP3      OH2            28.2651628566      -21.0320112121        9.0378985013  W2        2870            0.0000000000
      7004      2335  TIP3      H1             28.8811528566      -20.4052912121        9.4173785013  W2        2870            0.0000000000
      7005      2335  TIP3      H2             27.4034228566      -20.7160312121        9.3095485013  W2        2870            0.0000000000
      7006      2336  TIP3      OH2            29.6802028566      -19.1196312121       10.5304585013  W2        2873            0.0000000000
      7007      2336  TIP3      H1             28.9941328566      -18.7673812121       11.0974285013  W2        2873            0.0000000000
      7008      2336  TIP3      H2             30.2029928566      -18.3566712121       10.2838885013  W2        2873            0.0000000000
      7009      2337  TIP3      OH2            28.6120128566      -23.8414412121        8.5431785013  W2        2874            0.0000000000
      7010      2337  TIP3      H1             28.5672728566      -22.9021312121        8.7218785013  W2        2874            0.0000000000
      7011      2337  TIP3      H2             27.7243328566      -24.0769512121        8.2733885013  W2        2874            0.0000000000
      7012      2338  TIP3      OH2            27.5733128566      -16.8101712121        8.8458385013  W2        2881            0.0000000000
      7013      2338  TIP3      H1             28.4872328566      -16.7312812121        9.1192285013  W2        2881            0.0000000000
      7014      2338  TIP3      H2             27.5806228566      -17.4972112121        8.1793985013  W2        2881            0.0000000000
      7015      2339  TIP3      OH2            27.8849128566      -29.3784412121       10.3134285013  W2        2894            0.0000000000
      7016      2339  TIP3      H1             28.3239828566      -28.7673912121        9.7217785013  W2        2894            0.0000000000
      7017      2339  TIP3      H2             27.2511528566      -28.8400312121       10.7874285013  W2        2894            0.0000000000
      7018      2340  TIP3      OH2            29.7458228566      -27.4622912121        8.7558385013  W2        2896            0.0000000000
      7019      2340  TIP3      H1             30.2371628566      -28.0920512121        8.2283885013  W2        2896            0.0000000000
      7020      2340  TIP3      H2             30.3694528566      -27.1663512121        9.4189585013  W2        2896            0.0000000000
      7021      2341  TIP3      OH2            29.6039828566      -12.5101412121        8.2361485013  W2        2898            0.0000000000
      7022      2341  TIP3      H1             29.3364428566      -12.2238512121        9.1094585013  W2        2898            0.0000000000
      7023      2341  TIP3      H2             30.3752428566      -13.0562212121        8.3883985013  W2        2898            0.0000000000
      7024      2342  TIP3      OH2           -19.6659971434       -3.4625912121        8.9590985013  W2        2929            0.0000000000
      7025      2342  TIP3      H1            -18.9650071434       -3.4399012121        9.6104985013  W2        2929            0.0000000000
      7026      2342  TIP3      H2            -19.3637071434       -4.0906212121        8.3030285013  W2        2929            0.0000000000
      7027      2343  TIP3      OH2           -17.4431971434       -2.5484012121       10.5573085013  W2        2938            0.0000000000
      7028      2343  TIP3      H1            -16.8636471434       -2.3983712121       11.3041985013  W2        2938            0.0000000000
      7029      2343  TIP3      H2            -17.0291971434       -2.0776612121        9.8339485013  W2        2938            0.0000000000
      7030      2344  TIP3      OH2           -13.7443571434      -10.7983612121       10.3702785013  W2        2942            0.0000000000
      7031      2344  TIP3      H1            -14.6442871434      -10.6594612121       10.6653385013  W2        2942            0.0000000000
      7032      2344  TIP3      H2            -13.4925171434       -9.9669012121        9.9684485013  W2        2942            0.0000000000
      7033      2345  TIP3      OH2           -12.5552171434        3.5678787879        8.7466685013  W2        2944            0.0000000000
      7034      2345  TIP3      H1            -12.4818671434        4.5068987879        8.9171985013  W2        2944            0.0000000000
      7035      2345  TIP3      H2            -11.6497071434        3.2627387879        8.6903985013  W2        2944            0.0000000000
      7036      2346  TIP3      OH2           -17.1427971434        6.2989387879        9.4097785013  W2        2951            0.0000000000
      7037      2346  TIP3      H1            -16.7679571434        5.5545487879        8.9390385013  W2        2951            0.0000000000
      7038      2346  TIP3      H2            -17.1384271434        6.0289987879       10.3281085013  W2        2951            0.0000000000
      7039      2347  TIP3      OH2           -15.9658871434       -1.5155712121        8.1870985013  W2        2958            0.0000000000
      7040      2347  TIP3      H1            -15.9238071434       -1.7381812121        7.2570985013  W2        2958            0.0000000000
      7041      2347  TIP3      H2            -15.1166771434       -1.1168612121        8.3770885013  W2        2958            0.0000000000
      7042      2348  TIP3      OH2           -20.3931371434       -7.6397512121        8.8574285013  W2        2959            0.0000000000
      7043      2348  TIP3      H1            -20.6466571434       -7.6205912121        9.7802385013  W2        2959            0.0000000000
      7044      2348  TIP3      H2            -20.6499271434       -8.5112112121        8.5560485013  W2        2959            0.0000000000
      7045      2349  TIP3      OH2           -23.5108471434       -7.1941012121        7.9584685013  W2        2966            0.0000000000
      7046      2349  TIP3      H1            -23.9417771434       -7.6390912121        8.6882085013  W2        2966            0.0000000000
      7047      2349  TIP3      H2            -24.2289771434       -6.8224712121        7.4462185013  W2        2966            0.0000000000
      7048      2350  TIP3      OH2           -28.9942971434       -6.7059512121       10.4343785013  W2        2968            0.0000000000
      7049      2350  TIP3      H1            -28.5201271434       -6.1149612121        9.8494685013  W2        2968            0.0000000000
      7050      2350  TIP3      H2            -29.7116571434       -6.1756612121       10.7813885013  W2        2968            0.0000000000
      7051      2351  TIP3      OH2           -24.8926571434       -4.4168112121        9.3409085013  W2        2974            0.0000000000
      7052      2351  TIP3      H1            -25.4351471434       -4.7964312121        8.6496685013  W2        2974            0.0000000000
      7053      2351  TIP3      H2            -24.0591671434       -4.2223412121        8.9123185013  W2        2974            0.0000000000
      7054      2352  TIP3      OH2           -17.6596971434       -7.0372512121        9.4759785013  W2        2982            0.0000000000
      7055      2352  TIP3      H1            -18.5982771434       -6.9256912121        9.3248585013  W2        2982            0.0000000000
      7056      2352  TIP3      H2            -17.3624871434       -6.1805612121        9.7825485013  W2        2982            0.0000000000
      7057      2353  TIP3      OH2           -16.9413471434       -5.1699812121       11.1367185013  W2        2984            0.0000000000
      7058      2353  TIP3      H1            -16.0494471434       -5.3074812121       11.4558385013  W2        2984            0.0000000000
      7059      2353  TIP3      H2            -16.8849871434       -4.3793712121       10.6000685013  W2        2984            0.0000000000
      7060      2354  TIP3      OH2           -19.4319671434        1.6071887879       10.3021785013  W2        2986            0.0000000000
      7061      2354  TIP3      H1            -19.7271271434        2.4339787879       10.6836585013  W2        2986            0.0000000000
      7062      2354  TIP3      H2            -20.1349671434        0.9878787879       10.4983185013  W2        2986            0.0000000000
      7063      2355  TIP3      OH2           -12.0564771434       -4.9605712121       10.8313885013  W2        2990            0.0000000000
      7064      2355  TIP3      H1            -12.6108471434       -5.3567712121       10.1591385013  W2        2990            0.0000000000
      7065      2355  TIP3      H2            -11.9561171434       -4.0500512121       10.5537185013  W2        2990            0.0000000000
      7066      2356  TIP3      OH2           -28.3028371434       -2.1760112121        9.0378985013  W2        2995            0.0000000000
      7067      2356  TIP3      H1            -27.6868471434       -1.5492912121        9.4173785013  W2        2995            0.0000000000
      7068      2356  TIP3      H2            -29.1645771434       -1.8600312121        9.3095485013  W2        2995            0.0000000000
      7069      2357  TIP3      OH2           -16.3687471434        1.8020487879        9.1166585013  W2        3000            0.0000000000
      7070      2357  TIP3      H1            -16.0154371434        1.4220287879        9.9210085013  W2        3000            0.0000000000
      7071      2357  TIP3      H2            -17.3173971434        1.7085287879        9.2035885013  W2        3000            0.0000000000
      7072      2358  TIP3      OH2           -11.8653071434        6.2812987879        9.3176785013  W2        3002            0.0000000000
      7073      2358  TIP3      H1            -11.1215171434        6.8673487879        9.1778385013  W2        3002            0.0000000000
      7074      2358  TIP3      H2            -12.5594971434        6.8498787879        9.6509185013  W2        3002            0.0000000000
      7075      2359  TIP3      OH2           -22.2779671434        2.9136587879        7.5636585013  W2        3006            0.0000000000
      7076      2359  TIP3      H1            -22.0389871434        2.1654687879        7.0165485013  W2        3006            0.0000000000
      7077      2359  TIP3      H2            -22.5468371434        2.5258287879        8.3964385013  W2        3006            0.0000000000
      7078      2360  TIP3      OH2           -23.3409071434        2.4840387879       10.0199185013  W2        3007            0.0000000000
      7079      2360  TIP3      H1            -23.1941071434        1.9640187879       10.8100085013  W2        3007            0.0000000000
      7080      2360  TIP3      H2            -23.3437371434        3.3907987879       10.3265085013  W2        3007            0.0000000000
      7081      2361  TIP3      OH2           -26.8877971434       -0.2636312121       10.5304585013  W2        3008            0.0000000000
      7082      2361  TIP3      H1            -27.5738671434        0.0886187879       11.0974285013  W2        3008            0.0000000000
      7083      2361  TIP3      H2            -26.3650071434        0.4993287879       10.2838885013  W2        3008            0.0000000000
      7084      2362  TIP3      OH2           -20.6031871434        4.1813987879       10.7693385013  W2        3011            0.0000000000
      7085      2362  TIP3      H1            -21.4195771434        4.6783687879       10.8217685013  W2        3011            0.0000000000
      7086      2362  TIP3      H2            -20.0735571434        4.6567487879       10.1292185013  W2        3011            0.0000000000
      7087      2363  TIP3      OH2           -23.2648771434        5.2251187879       10.7510285013  W2        3015            0.0000000000
      7088      2363  TIP3      H1            -23.1040071434        6.0248687879       10.2502885013  W2        3015            0.0000000000
      7089      2363  TIP3      H2            -23.4620971434        5.5317187879       11.6360885013  W2        3015            0.0000000000
      7090      2364  TIP3      OH2           -24.5304371434       -8.0769612121       10.3667885013  W2        3016            0.0000000000
      7091      2364  TIP3      H1            -24.6139571434       -7.1886512121       10.7134285013  W2        3016            0.0000000000
      7092      2364  TIP3      H2            -23.6404071434       -8.3422912121       10.5984685013  W2        3016            0.0000000000
      7093      2365  TIP3      OH2           -26.2719071434        2.3502587879        9.4272385013  W2        3019            0.0000000000
      7094      2365  TIP3      H1            -25.6797571434        3.0497387879        9.7034785013  W2        3019            0.0000000000
      7095      2365  TIP3      H2            -25.8126071434        1.9172087879        8.7076985013  W2        3019            0.0000000000
      7096      2366  TIP3      OH2           -27.9559871434       -4.9854412121        8.5431785013  W2        3020            0.0000000000
      7097      2366  TIP3      H1            -28.0007271434       -4.0461312121        8.7218785013  W2        3020            0.0000000000
      7098      2366  TIP3      H2            -28.8436671434       -5.2209512121        8.2733885013  W2        3020            0.0000000000
      7099      2367  TIP3      OH2           -20.2397871434        4.7767987879        7.7022585013  W2        3026            0.0000000000
      7100      2367  TIP3      H1            -20.8836871434        4.1456587879        8.0236285013  W2        3026            0.0000000000
      7101      2367  TIP3      H2            -19.4779571434        4.2455987879        7.4706085013  W2        3026            0.0000000000
      7102      2368  TIP3      OH2           -15.6354971434        4.5937887879        7.9360585013  W2        3028            0.0000000000
      7103      2368  TIP3      H1            -15.3524571434        3.7993087879        8.3887485013  W2        3028            0.0000000000
      7104      2368  TIP3      H2            -14.8957071434        4.8268887879        7.3751685013  W2        3028            0.0000000000
      7105      2369  TIP3      OH2           -24.6807671434        0.5032787879        7.7935485013  W2        3030            0.0000000000
      7106      2369  TIP3      H1            -24.6163571434       -0.2907612121        8.3241885013  W2        3030            0.0000000000
      7107      2369  TIP3      H2            -24.0278471434        0.3845587879        7.1037485013  W2        3030            0.0000000000
      7108      2370  TIP3      OH2           -19.3284271434        1.5504487879        7.5293485013  W2        3032            0.0000000000
      7109      2370  TIP3      H1            -19.5970171434        1.7306587879        8.4302385013  W2        3032            0.0000000000
      7110      2370  TIP3      H2            -19.5348671434        0.6250687879        7.3979285013  W2        3032            0.0000000000
      7111      2371  TIP3      OH2           -23.5313871434       -1.5241012121       10.0993485013  W2        3035            0.0000000000
      7112      2371  TIP3      H1            -23.9911871434       -2.0082712121       10.7851985013  W2        3035            0.0000000000
      7113      2371  TIP3      H2            -23.2765171434       -2.1925612121        9.4633985013  W2        3035            0.0000000000
      7114      2372  TIP3      OH2           -22.4603471434       -3.2809212121        8.3616685013  W2        3037            0.0000000000
      7115      2372  TIP3      H1            -22.6408471434       -3.4358012121        7.4344985013  W2        3037            0.0000000000
      7116      2372  TIP3      H2            -21.5102971434       -3.1730512121        8.4064585013  W2        3037            0.0000000000
      7117      2373  TIP3      OH2           -13.0705171434       -0.9265012121        7.8074785013  W2        3039            0.0000000000
      7118      2373  TIP3      H1            -13.3440371434       -1.3509512121        6.9943085013  W2        3039            0.0000000000
      7119      2373  TIP3      H2            -13.0311071434        0.0049487879        7.5905185013  W2        3039            0.0000000000
      7120      2374  TIP3      OH2           -22.5631771434        7.4094487879        9.3630285013  W2        3053            0.0000000000
      7121      2374  TIP3      H1            -21.6301071434        7.5673187879        9.5068685013  W2        3053            0.0000000000
      7122      2374  TIP3      H2            -22.8272971434        8.0847487879        8.7381785013  W2        3053            0.0000000000
      7123      2375  TIP3      OH2           -28.9946871434        2.0458287879        8.8458385013  W2        3054            0.0000000000
      7124      2375  TIP3      H1            -28.0807671434        2.1247187879        9.1192285013  W2        3054            0.0000000000
      7125      2375  TIP3      H2            -28.9873771434        1.3587887879        8.1793985013  W2        3054            0.0000000000
      7126      2376  TIP3      OH2           -11.9493671434       -2.1031012121        9.9972185013  W2        3064            0.0000000000
      7127      2376  TIP3      H1            -12.4712571434       -1.7466912121        9.2783085013  W2        3064            0.0000000000
      7128      2376  TIP3      H2            -11.9824471434       -1.4283212121       10.6753085013  W2        3064            0.0000000000
      7129      2377  TIP3      OH2           -13.6004671434       -4.8635412121        8.5479285013  W2        3065            0.0000000000
      7130      2377  TIP3      H1            -13.5040271434       -4.1968412121        7.8678985013  W2        3065            0.0000000000
      7131      2377  TIP3      H2            -13.7405071434       -5.6789112121        8.0664785013  W2        3065            0.0000000000
      7132      2378  TIP3      OH2           -14.3530871434       -7.4555612121        7.6654785013  W2        3070            0.0000000000
      7133      2378  TIP3      H1            -13.7425071434       -7.8268812121        8.3022985013  W2        3070            0.0000000000
      7134      2378  TIP3      H2            -15.1899371434       -7.8768712121        7.8614785013  W2        3070            0.0000000000
      7135      2379  TIP3      OH2           -12.2404171434       -8.5699812121        9.2076985013  W2        3080            0.0000000000
      7136      2379  TIP3      H1            -11.8281571434       -9.2914112121        8.7324985013  W2        3080            0.0000000000
      7137      2379  TIP3      H2            -11.5587671434       -7.9005212121        9.2661285013  W2        3080            0.0000000000
      7138      2380  TIP3      OH2           -28.6830871434      -10.5224412121       10.3134285013  W2        3101            0.0000000000
      7139      2380  TIP3      H1            -28.2440171434       -9.9113912121        9.7217785013  W2        3101            0.0000000000
      7140      2380  TIP3      H2            -29.3168471434       -9.9840312121       10.7874285013  W2        3101            0.0000000000
      7141      2381  TIP3      OH2           -26.8221771434       -8.6062912121        8.7558385013  W2        3106            0.0000000000
      7142      2381  TIP3      H1            -26.3308371434       -9.2360512121        8.2283885013  W2        3106            0.0000000000
      7143      2381  TIP3      H2            -26.1985471434       -8.3103512121        9.4189585013  W2        3106            0.0000000000
      7144      2382  TIP3      OH2           -19.9177871434        6.6352687879        9.6085585013  W2        3108            0.0000000000
      7145      2382  TIP3      H1            -19.0517671434        7.0020087879        9.4303785013  W2        3108            0.0000000000
      7146      2382  TIP3      H2            -20.1645071434        6.1960687879        8.7946385013  W2        3108            0.0000000000
      7147      2383  TIP3      OH2           -26.9640171434        6.3458587879        8.2361485013  W2        3112            0.0000000000
      7148      2383  TIP3      H1            -27.2315571434        6.6321487879        9.1094585013  W2        3112            0.0000000000
      7149      2383  TIP3      H2            -26.1927571434        5.7997787879        8.3883985013  W2        3112            0.0000000000
      7150      2384  TIP3      OH2            -0.8099971434       -3.4625912121        8.9590985013  W2        3145            0.0000000000
      7151      2384  TIP3      H1             -0.1090071434       -3.4399012121        9.6104985013  W2        3145            0.0000000000
      7152      2384  TIP3      H2             -0.5077071434       -4.0906212121        8.3030285013  W2        3145            0.0000000000
      7153      2385  TIP3      OH2             1.4128028566       -2.5484012121       10.5573085013  W2        3154            0.0000000000
      7154      2385  TIP3      H1              1.9923528566       -2.3983712121       11.3041985013  W2        3154            0.0000000000
      7155      2385  TIP3      H2              1.8268028566       -2.0776612121        9.8339485013  W2        3154            0.0000000000
      7156      2386  TIP3      OH2             5.1116428566      -10.7983612121       10.3702785013  W2        3158            0.0000000000
      7157      2386  TIP3      H1              4.2117128566      -10.6594612121       10.6653385013  W2        3158            0.0000000000
      7158      2386  TIP3      H2              5.3634828566       -9.9669012121        9.9684485013  W2        3158            0.0000000000
      7159      2387  TIP3      OH2             6.3007828566        3.5678787879        8.7466685013  W2        3160            0.0000000000
      7160      2387  TIP3      H1              6.3741328566        4.5068987879        8.9171985013  W2        3160            0.0000000000
      7161      2387  TIP3      H2              7.2062928566        3.2627387879        8.6903985013  W2        3160            0.0000000000
      7162      2388  TIP3      OH2             1.7132028566        6.2989387879        9.4097785013  W2        3167            0.0000000000
      7163      2388  TIP3      H1              2.0880428566        5.5545487879        8.9390385013  W2        3167            0.0000000000
      7164      2388  TIP3      H2              1.7175728566        6.0289987879       10.3281085013  W2        3167            0.0000000000
      7165      2389  TIP3      OH2             2.8901128566       -1.5155712121        8.1870985013  W2        3174            0.0000000000
      7166      2389  TIP3      H1              2.9321928566       -1.7381812121        7.2570985013  W2        3174            0.0000000000
      7167      2389  TIP3      H2              3.7393228566       -1.1168612121        8.3770885013  W2        3174            0.0000000000
      7168      2390  TIP3      OH2            -1.5371371434       -7.6397512121        8.8574285013  W2        3175            0.0000000000
      7169      2390  TIP3      H1             -1.7906571434       -7.6205912121        9.7802385013  W2        3175            0.0000000000
      7170      2390  TIP3      H2             -1.7939271434       -8.5112112121        8.5560485013  W2        3175            0.0000000000
      7171      2391  TIP3      OH2            -4.6548471434       -7.1941012121        7.9584685013  W2        3182            0.0000000000
      7172      2391  TIP3      H1             -5.0857771434       -7.6390912121        8.6882085013  W2        3182            0.0000000000
      7173      2391  TIP3      H2             -5.3729771434       -6.8224712121        7.4462185013  W2        3182            0.0000000000
      7174      2392  TIP3      OH2           -10.1382971434       -6.7059512121       10.4343785013  W2        3184            0.0000000000
      7175      2392  TIP3      H1             -9.6641271434       -6.1149612121        9.8494685013  W2        3184            0.0000000000
      7176      2392  TIP3      H2            -10.8556571434       -6.1756612121       10.7813885013  W2        3184            0.0000000000
      7177      2393  TIP3      OH2            -6.0366571434       -4.4168112121        9.3409085013  W2        3190            0.0000000000
      7178      2393  TIP3      H1             -6.5791471434       -4.7964312121        8.6496685013  W2        3190            0.0000000000
      7179      2393  TIP3      H2             -5.2031671434       -4.2223412121        8.9123185013  W2        3190            0.0000000000
      7180      2394  TIP3      OH2             1.1963028566       -7.0372512121        9.4759785013  W2        3198            0.0000000000
      7181      2394  TIP3      H1              0.2577228566       -6.9256912121        9.3248585013  W2        3198            0.0000000000
      7182      2394  TIP3      H2              1.4935128566       -6.1805612121        9.7825485013  W2        3198            0.0000000000
      7183      2395  TIP3      OH2             1.9146528566       -5.1699812121       11.1367185013  W2        3200            0.0000000000
      7184      2395  TIP3      H1              2.8065528566       -5.3074812121       11.4558385013  W2        3200            0.0000000000
      7185      2395  TIP3      H2              1.9710128566       -4.3793712121       10.6000685013  W2        3200            0.0000000000
      7186      2396  TIP3      OH2            -0.5759671434        1.6071887879       10.3021785013  W2        3202            0.0000000000
      7187      2396  TIP3      H1             -0.8711271434        2.4339787879       10.6836585013  W2        3202            0.0000000000
      7188      2396  TIP3      H2             -1.2789671434        0.9878787879       10.4983185013  W2        3202            0.0000000000
      7189      2397  TIP3      OH2             6.7995228566       -4.9605712121       10.8313885013  W2        3206            0.0000000000
      7190      2397  TIP3      H1              6.2451528566       -5.3567712121       10.1591385013  W2        3206            0.0000000000
      7191      2397  TIP3      H2              6.8998828566       -4.0500512121       10.5537185013  W2        3206            0.0000000000
      7192      2398  TIP3      OH2            -9.4468371434       -2.1760112121        9.0378985013  W2        3211            0.0000000000
      7193      2398  TIP3      H1             -8.8308471434       -1.5492912121        9.4173785013  W2        3211            0.0000000000
      7194      2398  TIP3      H2            -10.3085771434       -1.8600312121        9.3095485013  W2        3211            0.0000000000
      7195      2399  TIP3      OH2             2.4872528566        1.8020487879        9.1166585013  W2        3216            0.0000000000
      7196      2399  TIP3      H1              2.8405628566        1.4220287879        9.9210085013  W2        3216            0.0000000000
      7197      2399  TIP3      H2              1.5386028566        1.7085287879        9.2035885013  W2        3216            0.0000000000
      7198      2400  TIP3      OH2             6.9906928566        6.2812987879        9.3176785013  W2        3218            0.0000000000
      7199      2400  TIP3      H1              7.7344828566        6.8673487879        9.1778385013  W2        3218            0.0000000000
      7200      2400  TIP3      H2              6.2965028566        6.8498787879        9.6509185013  W2        3218            0.0000000000
      7201      2401  TIP3      OH2            -3.4219671434        2.9136587879        7.5636585013  W2        3222            0.0000000000
      7202      2401  TIP3      H1             -3.1829871434        2.1654687879        7.0165485013  W2        3222            0.0000000000
      7203      2401  TIP3      H2             -3.6908371434        2.5258287879        8.3964385013  W2        3222            0.0000000000
      7204      2402  TIP3      OH2            -4.4849071434        2.4840387879       10.0199185013  W2        3223            0.0000000000
      7205      2402  TIP3      H1             -4.3381071434        1.9640187879       10.8100085013  W2        3223            0.0000000000
      7206      2402  TIP3      H2             -4.4877371434        3.3907987879       10.3265085013  W2        3223            0.0000000000
      7207      2403  TIP3      OH2            -8.0317971434       -0.2636312121       10.5304585013  W2        3224            0.0000000000
      7208      2403  TIP3      H1             -8.7178671434        0.0886187879       11.0974285013  W2        3224            0.0000000000
      7209      2403  TIP3      H2             -7.5090071434        0.4993287879       10.2838885013  W2        3224            0.0000000000
      7210      2404  TIP3      OH2            -1.7471871434        4.1813987879       10.7693385013  W2        3227            0.0000000000
      7211      2404  TIP3      H1             -2.5635771434        4.6783687879       10.8217685013  W2        3227            0.0000000000
      7212      2404  TIP3      H2             -1.2175571434        4.6567487879       10.1292185013  W2        3227            0.0000000000
      7213      2405  TIP3      OH2            -4.4088771434        5.2251187879       10.7510285013  W2        3231            0.0000000000
      7214      2405  TIP3      H1             -4.2480071434        6.0248687879       10.2502885013  W2        3231            0.0000000000
      7215      2405  TIP3      H2             -4.6060971434        5.5317187879       11.6360885013  W2        3231            0.0000000000
      7216      2406  TIP3      OH2            -5.6744371434       -8.0769612121       10.3667885013  W2        3232            0.0000000000
      7217      2406  TIP3      H1             -5.7579571434       -7.1886512121       10.7134285013  W2        3232            0.0000000000
      7218      2406  TIP3      H2             -4.7844071434       -8.3422912121       10.5984685013  W2        3232            0.0000000000
      7219      2407  TIP3      OH2            -7.4159071434        2.3502587879        9.4272385013  W2        3235            0.0000000000
      7220      2407  TIP3      H1             -6.8237571434        3.0497387879        9.7034785013  W2        3235            0.0000000000
      7221      2407  TIP3      H2             -6.9566071434        1.9172087879        8.7076985013  W2        3235            0.0000000000
      7222      2408  TIP3      OH2            -9.0999871434       -4.9854412121        8.5431785013  W2        3236            0.0000000000
      7223      2408  TIP3      H1             -9.1447271434       -4.0461312121        8.7218785013  W2        3236            0.0000000000
      7224      2408  TIP3      H2             -9.9876671434       -5.2209512121        8.2733885013  W2        3236            0.0000000000
      7225      2409  TIP3      OH2            -1.3837871434        4.7767987879        7.7022585013  W2        3242            0.0000000000
      7226      2409  TIP3      H1             -2.0276871434        4.1456587879        8.0236285013  W2        3242            0.0000000000
      7227      2409  TIP3      H2             -0.6219571434        4.2455987879        7.4706085013  W2        3242            0.0000000000
      7228      2410  TIP3      OH2             3.2205028566        4.5937887879        7.9360585013  W2        3244            0.0000000000
      7229      2410  TIP3      H1              3.5035428566        3.7993087879        8.3887485013  W2        3244            0.0000000000
      7230      2410  TIP3      H2              3.9602928566        4.8268887879        7.3751685013  W2        3244            0.0000000000
      7231      2411  TIP3      OH2            -5.8247671434        0.5032787879        7.7935485013  W2        3246            0.0000000000
      7232      2411  TIP3      H1             -5.7603571434       -0.2907612121        8.3241885013  W2        3246            0.0000000000
      7233      2411  TIP3      H2             -5.1718471434        0.3845587879        7.1037485013  W2        3246            0.0000000000
      7234      2412  TIP3      OH2            -0.4724271434        1.5504487879        7.5293485013  W2        3248            0.0000000000
      7235      2412  TIP3      H1             -0.7410171434        1.7306587879        8.4302385013  W2        3248            0.0000000000
      7236      2412  TIP3      H2             -0.6788671434        0.6250687879        7.3979285013  W2        3248            0.0000000000
      7237      2413  TIP3      OH2            -4.6753871434       -1.5241012121       10.0993485013  W2        3251            0.0000000000
      7238      2413  TIP3      H1             -5.1351871434       -2.0082712121       10.7851985013  W2        3251            0.0000000000
      7239      2413  TIP3      H2             -4.4205171434       -2.1925612121        9.4633985013  W2        3251            0.0000000000
      7240      2414  TIP3      OH2            -3.6043471434       -3.2809212121        8.3616685013  W2        3253            0.0000000000
      7241      2414  TIP3      H1             -3.7848471434       -3.4358012121        7.4344985013  W2        3253            0.0000000000
      7242      2414  TIP3      H2             -2.6542971434       -3.1730512121        8.4064585013  W2        3253            0.0000000000
      7243      2415  TIP3      OH2             5.7854828566       -0.9265012121        7.8074785013  W2        3255            0.0000000000
      7244      2415  TIP3      H1              5.5119628566       -1.3509512121        6.9943085013  W2        3255            0.0000000000
      7245      2415  TIP3      H2              5.8248928566        0.0049487879        7.5905185013  W2        3255            0.0000000000
      7246      2416  TIP3      OH2            -3.7071771434        7.4094487879        9.3630285013  W2        3269            0.0000000000
      7247      2416  TIP3      H1             -2.7741071434        7.5673187879        9.5068685013  W2        3269            0.0000000000
      7248      2416  TIP3      H2             -3.9712971434        8.0847487879        8.7381785013  W2        3269            0.0000000000
      7249      2417  TIP3      OH2           -10.1386871434        2.0458287879        8.8458385013  W2        3270            0.0000000000
      7250      2417  TIP3      H1             -9.2247671434        2.1247187879        9.1192285013  W2        3270            0.0000000000
      7251      2417  TIP3      H2            -10.1313771434        1.3587887879        8.1793985013  W2        3270            0.0000000000
      7252      2418  TIP3      OH2             6.9066328566       -2.1031012121        9.9972185013  W2        3280            0.0000000000
      7253      2418  TIP3      H1              6.3847428566       -1.7466912121        9.2783085013  W2        3280            0.0000000000
      7254      2418  TIP3      H2              6.8735528566       -1.4283212121       10.6753085013  W2        3280            0.0000000000
      7255      2419  TIP3      OH2             5.2555328566       -4.8635412121        8.5479285013  W2        3281            0.0000000000
      7256      2419  TIP3      H1              5.3519728566       -4.1968412121        7.8678985013  W2        3281            0.0000000000
      7257      2419  TIP3      H2              5.1154928566       -5.6789112121        8.0664785013  W2        3281            0.0000000000
      7258      2420  TIP3      OH2             4.5029128566       -7.4555612121        7.6654785013  W2        3286            0.0000000000
      7259      2420  TIP3      H1              5.1134928566       -7.8268812121        8.3022985013  W2        3286            0.0000000000
      7260      2420  TIP3      H2              3.6660628566       -7.8768712121        7.8614785013  W2        3286            0.0000000000
      7261      2421  TIP3      OH2             6.6155828566       -8.5699812121        9.2076985013  W2        3296            0.0000000000
      7262      2421  TIP3      H1              7.0278428566       -9.2914112121        8.7324985013  W2        3296            0.0000000000
      7263      2421  TIP3      H2              7.2972328566       -7.9005212121        9.2661285013  W2        3296            0.0000000000
      7264      2422  TIP3      OH2            -9.8270871434      -10.5224412121       10.3134285013  W2        3317            0.0000000000
      7265      2422  TIP3      H1             -9.3880171434       -9.9113912121        9.7217785013  W2        3317            0.0000000000
      7266      2422  TIP3      H2            -10.4608471434       -9.9840312121       10.7874285013  W2        3317            0.0000000000
      7267      2423  TIP3      OH2            -7.9661771434       -8.6062912121        8.7558385013  W2        3322            0.0000000000
      7268      2423  TIP3      H1             -7.4748371434       -9.2360512121        8.2283885013  W2        3322            0.0000000000
      7269      2423  TIP3      H2             -7.3425471434       -8.3103512121        9.4189585013  W2        3322            0.0000000000
      7270      2424  TIP3      OH2            -1.0617871434        6.6352687879        9.6085585013  W2        3324            0.0000000000
      7271      2424  TIP3      H1             -0.1957671434        7.0020087879        9.4303785013  W2        3324            0.0000000000
      7272      2424  TIP3      H2             -1.3085071434        6.1960687879        8.7946385013  W2        3324            0.0000000000
      7273      2425  TIP3      OH2            -8.1080171434        6.3458587879        8.2361485013  W2        3328            0.0000000000
      7274      2425  TIP3      H1             -8.3755571434        6.6321487879        9.1094585013  W2        3328            0.0000000000
      7275      2425  TIP3      H2             -7.3367571434        5.7997787879        8.3883985013  W2        3328            0.0000000000
      7276      2426  TIP3      OH2            18.0460028566       -3.4625912121        8.9590985013  W2        3361            0.0000000000
      7277      2426  TIP3      H1             18.7469928566       -3.4399012121        9.6104985013  W2        3361            0.0000000000
      7278      2426  TIP3      H2             18.3482928566       -4.0906212121        8.3030285013  W2        3361            0.0000000000
      7279      2427  TIP3      OH2            20.2688028566       -2.5484012121       10.5573085013  W2        3370            0.0000000000
      7280      2427  TIP3      H1             20.8483528566       -2.3983712121       11.3041985013  W2        3370            0.0000000000
      7281      2427  TIP3      H2             20.6828028566       -2.0776612121        9.8339485013  W2        3370            0.0000000000
      7282      2428  TIP3      OH2            23.9676428566      -10.7983612121       10.3702785013  W2        3374            0.0000000000
      7283      2428  TIP3      H1             23.0677128566      -10.6594612121       10.6653385013  W2        3374            0.0000000000
      7284      2428  TIP3      H2             24.2194828566       -9.9669012121        9.9684485013  W2        3374            0.0000000000
      7285      2429  TIP3      OH2            25.1567828566        3.5678787879        8.7466685013  W2        3376            0.0000000000
      7286      2429  TIP3      H1             25.2301328566        4.5068987879        8.9171985013  W2        3376            0.0000000000
      7287      2429  TIP3      H2             26.0622928566        3.2627387879        8.6903985013  W2        3376            0.0000000000
      7288      2430  TIP3      OH2            20.5692028566        6.2989387879        9.4097785013  W2        3383            0.0000000000
      7289      2430  TIP3      H1             20.9440428566        5.5545487879        8.9390385013  W2        3383            0.0000000000
      7290      2430  TIP3      H2             20.5735728566        6.0289987879       10.3281085013  W2        3383            0.0000000000
      7291      2431  TIP3      OH2            21.7461128566       -1.5155712121        8.1870985013  W2        3390            0.0000000000
      7292      2431  TIP3      H1             21.7881928566       -1.7381812121        7.2570985013  W2        3390            0.0000000000
      7293      2431  TIP3      H2             22.5953228566       -1.1168612121        8.3770885013  W2        3390            0.0000000000
      7294      2432  TIP3      OH2            17.3188628566       -7.6397512121        8.8574285013  W2        3391            0.0000000000
      7295      2432  TIP3      H1             17.0653428566       -7.6205912121        9.7802385013  W2        3391            0.0000000000
      7296      2432  TIP3      H2             17.0620728566       -8.5112112121        8.5560485013  W2        3391            0.0000000000
      7297      2433  TIP3      OH2            14.2011528566       -7.1941012121        7.9584685013  W2        3398            0.0000000000
      7298      2433  TIP3      H1             13.7702228566       -7.6390912121        8.6882085013  W2        3398            0.0000000000
      7299      2433  TIP3      H2             13.4830228566       -6.8224712121        7.4462185013  W2        3398            0.0000000000
      7300      2434  TIP3      OH2             8.7177028566       -6.7059512121       10.4343785013  W2        3400            0.0000000000
      7301      2434  TIP3      H1              9.1918728566       -6.1149612121        9.8494685013  W2        3400            0.0000000000
      7302      2434  TIP3      H2              8.0003428566       -6.1756612121       10.7813885013  W2        3400            0.0000000000
      7303      2435  TIP3      OH2            12.8193428566       -4.4168112121        9.3409085013  W2        3406            0.0000000000
      7304      2435  TIP3      H1             12.2768528566       -4.7964312121        8.6496685013  W2        3406            0.0000000000
      7305      2435  TIP3      H2             13.6528328566       -4.2223412121        8.9123185013  W2        3406            0.0000000000
      7306      2436  TIP3      OH2            20.0523028566       -7.0372512121        9.4759785013  W2        3414            0.0000000000
      7307      2436  TIP3      H1             19.1137228566       -6.9256912121        9.3248585013  W2        3414            0.0000000000
      7308      2436  TIP3      H2             20.3495128566       -6.1805612121        9.7825485013  W2        3414            0.0000000000
      7309      2437  TIP3      OH2            20.7706528566       -5.1699812121       11.1367185013  W2        3416            0.0000000000
      7310      2437  TIP3      H1             21.6625528566       -5.3074812121       11.4558385013  W2        3416            0.0000000000
      7311      2437  TIP3      H2             20.8270128566       -4.3793712121       10.6000685013  W2        3416            0.0000000000
      7312      2438  TIP3      OH2            18.2800328566        1.6071887879       10.3021785013  W2        3418            0.0000000000
      7313      2438  TIP3      H1             17.9848728566        2.4339787879       10.6836585013  W2        3418            0.0000000000
      7314      2438  TIP3      H2             17.5770328566        0.9878787879       10.4983185013  W2        3418            0.0000000000
      7315      2439  TIP3      OH2            25.6555228566       -4.9605712121       10.8313885013  W2        3422            0.0000000000
      7316      2439  TIP3      H1             25.1011528566       -5.3567712121       10.1591385013  W2        3422            0.0000000000
      7317      2439  TIP3      H2             25.7558828566       -4.0500512121       10.5537185013  W2        3422            0.0000000000
      7318      2440  TIP3      OH2             9.4091628566       -2.1760112121        9.0378985013  W2        3427            0.0000000000
      7319      2440  TIP3      H1             10.0251528566       -1.5492912121        9.4173785013  W2        3427            0.0000000000
      7320      2440  TIP3      H2              8.5474228566       -1.8600312121        9.3095485013  W2        3427            0.0000000000
      7321      2441  TIP3      OH2            21.3432528566        1.8020487879        9.1166585013  W2        3432            0.0000000000
      7322      2441  TIP3      H1             21.6965628566        1.4220287879        9.9210085013  W2        3432            0.0000000000
      7323      2441  TIP3      H2             20.3946028566        1.7085287879        9.2035885013  W2        3432            0.0000000000
      7324      2442  TIP3      OH2            25.8466928566        6.2812987879        9.3176785013  W2        3434            0.0000000000
      7325      2442  TIP3      H1             26.5904828566        6.8673487879        9.1778385013  W2        3434            0.0000000000
      7326      2442  TIP3      H2             25.1525028566        6.8498787879        9.6509185013  W2        3434            0.0000000000
      7327      2443  TIP3      OH2            15.4340328566        2.9136587879        7.5636585013  W2        3438            0.0000000000
      7328      2443  TIP3      H1             15.6730128566        2.1654687879        7.0165485013  W2        3438            0.0000000000
      7329      2443  TIP3      H2             15.1651628566        2.5258287879        8.3964385013  W2        3438            0.0000000000
      7330      2444  TIP3      OH2            14.3710928566        2.4840387879       10.0199185013  W2        3439            0.0000000000
      7331      2444  TIP3      H1             14.5178928566        1.9640187879       10.8100085013  W2        3439            0.0000000000
      7332      2444  TIP3      H2             14.3682628566        3.3907987879       10.3265085013  W2        3439            0.0000000000
      7333      2445  TIP3      OH2            10.8242028566       -0.2636312121       10.5304585013  W2        3440            0.0000000000
      7334      2445  TIP3      H1             10.1381328566        0.0886187879       11.0974285013  W2        3440            0.0000000000
      7335      2445  TIP3      H2             11.3469928566        0.4993287879       10.2838885013  W2        3440            0.0000000000
      7336      2446  TIP3      OH2            17.1088128566        4.1813987879       10.7693385013  W2        3443            0.0000000000
      7337      2446  TIP3      H1             16.2924228566        4.6783687879       10.8217685013  W2        3443            0.0000000000
      7338      2446  TIP3      H2             17.6384428566        4.6567487879       10.1292185013  W2        3443            0.0000000000
      7339      2447  TIP3      OH2            14.4471228566        5.2251187879       10.7510285013  W2        3447            0.0000000000
      7340      2447  TIP3      H1             14.6079928566        6.0248687879       10.2502885013  W2        3447            0.0000000000
      7341      2447  TIP3      H2             14.2499028566        5.5317187879       11.6360885013  W2        3447            0.0000000000
      7342      2448  TIP3      OH2            13.1815628566       -8.0769612121       10.3667885013  W2        3448            0.0000000000
      7343      2448  TIP3      H1             13.0980428566       -7.1886512121       10.7134285013  W2        3448            0.0000000000
      7344      2448  TIP3      H2             14.0715928566       -8.3422912121       10.5984685013  W2        3448            0.0000000000
      7345      2449  TIP3      OH2            11.4400928566        2.3502587879        9.4272385013  W2        3451            0.0000000000
      7346      2449  TIP3      H1             12.0322428566        3.0497387879        9.7034785013  W2        3451            0.0000000000
      7347      2449  TIP3      H2             11.8993928566        1.9172087879        8.7076985013  W2        3451            0.0000000000
      7348      2450  TIP3      OH2             9.7560128566       -4.9854412121        8.5431785013  W2        3452            0.0000000000
      7349      2450  TIP3      H1              9.7112728566       -4.0461312121        8.7218785013  W2        3452            0.0000000000
      7350      2450  TIP3      H2              8.8683328566       -5.2209512121        8.2733885013  W2        3452            0.0000000000
      7351      2451  TIP3      OH2            17.4722128566        4.7767987879        7.7022585013  W2        3458            0.0000000000
      7352      2451  TIP3      H1             16.8283128566        4.1456587879        8.0236285013  W2        3458            0.0000000000
      7353      2451  TIP3      H2             18.2340428566        4.2455987879        7.4706085013  W2        3458            0.0000000000
      7354      2452  TIP3      OH2            22.0765028566        4.5937887879        7.9360585013  W2        3460            0.0000000000
      7355      2452  TIP3      H1             22.3595428566        3.7993087879        8.3887485013  W2        3460            0.0000000000
      7356      2452  TIP3      H2             22.8162928566        4.8268887879        7.3751685013  W2        3460            0.0000000000
      7357      2453  TIP3      OH2            13.0312328566        0.5032787879        7.7935485013  W2        3462            0.0000000000
      7358      2453  TIP3      H1             13.0956428566       -0.2907612121        8.3241885013  W2        3462            0.0000000000
      7359      2453  TIP3      H2             13.6841528566        0.3845587879        7.1037485013  W2        3462            0.0000000000
      7360      2454  TIP3      OH2            18.3835728566        1.5504487879        7.5293485013  W2        3464            0.0000000000
      7361      2454  TIP3      H1             18.1149828566        1.7306587879        8.4302385013  W2        3464            0.0000000000
      7362      2454  TIP3      H2             18.1771328566        0.6250687879        7.3979285013  W2        3464            0.0000000000
      7363      2455  TIP3      OH2            14.1806128566       -1.5241012121       10.0993485013  W2        3467            0.0000000000
      7364      2455  TIP3      H1             13.7208128566       -2.0082712121       10.7851985013  W2        3467            0.0000000000
      7365      2455  TIP3      H2             14.4354828566       -2.1925612121        9.4633985013  W2        3467            0.0000000000
      7366      2456  TIP3      OH2            15.2516528566       -3.2809212121        8.3616685013  W2        3469            0.0000000000
      7367      2456  TIP3      H1             15.0711528566       -3.4358012121        7.4344985013  W2        3469            0.0000000000
      7368      2456  TIP3      H2             16.2017028566       -3.1730512121        8.4064585013  W2        3469            0.0000000000
      7369      2457  TIP3      OH2            24.6414828566       -0.9265012121        7.8074785013  W2        3471            0.0000000000
      7370      2457  TIP3      H1             24.3679628566       -1.3509512121        6.9943085013  W2        3471            0.0000000000
      7371      2457  TIP3      H2             24.6808928566        0.0049487879        7.5905185013  W2        3471            0.0000000000
      7372      2458  TIP3      OH2            15.1488228566        7.4094487879        9.3630285013  W2        3485            0.0000000000
      7373      2458  TIP3      H1             16.0818928566        7.5673187879        9.5068685013  W2        3485            0.0000000000
      7374      2458  TIP3      H2             14.8847028566        8.0847487879        8.7381785013  W2        3485            0.0000000000
      7375      2459  TIP3      OH2             8.7173128566        2.0458287879        8.8458385013  W2        3486            0.0000000000
      7376      2459  TIP3      H1              9.6312328566        2.1247187879        9.1192285013  W2        3486            0.0000000000
      7377      2459  TIP3      H2              8.7246228566        1.3587887879        8.1793985013  W2        3486            0.0000000000
      7378      2460  TIP3      OH2            25.7626328566       -2.1031012121        9.9972185013  W2        3496            0.0000000000
      7379      2460  TIP3      H1             25.2407428566       -1.7466912121        9.2783085013  W2        3496            0.0000000000
      7380      2460  TIP3      H2             25.7295528566       -1.4283212121       10.6753085013  W2        3496            0.0000000000
      7381      2461  TIP3      OH2            24.1115328566       -4.8635412121        8.5479285013  W2        3497            0.0000000000
      7382      2461  TIP3      H1             24.2079728566       -4.1968412121        7.8678985013  W2        3497            0.0000000000
      7383      2461  TIP3      H2             23.9714928566       -5.6789112121        8.0664785013  W2        3497            0.0000000000
      7384      2462  TIP3      OH2            23.3589128566       -7.4555612121        7.6654785013  W2        3502            0.0000000000
      7385      2462  TIP3      H1             23.9694928566       -7.8268812121        8.3022985013  W2        3502            0.0000000000
      7386      2462  TIP3      H2             22.5220628566       -7.8768712121        7.8614785013  W2        3502            0.0000000000
      7387      2463  TIP3      OH2            25.4715828566       -8.5699812121        9.2076985013  W2        3512            0.0000000000
      7388      2463  TIP3      H1             25.8838428566       -9.2914112121        8.7324985013  W2        3512            0.0000000000
      7389      2463  TIP3      H2             26.1532328566       -7.9005212121        9.2661285013  W2        3512            0.0000000000
      7390      2464  TIP3      OH2             9.0289128566      -10.5224412121       10.3134285013  W2        3533            0.0000000000
      7391      2464  TIP3      H1              9.4679828566       -9.9113912121        9.7217785013  W2        3533            0.0000000000
      7392      2464  TIP3      H2              8.3951528566       -9.9840312121       10.7874285013  W2        3533            0.0000000000
      7393      2465  TIP3      OH2            10.8898228566       -8.6062912121        8.7558385013  W2        3538            0.0000000000
      7394      2465  TIP3      H1             11.3811628566       -9.2360512121        8.2283885013  W2        3538            0.0000000000
      7395      2465  TIP3      H2             11.5134528566       -8.3103512121        9.4189585013  W2        3538            0.0000000000
      7396      2466  TIP3      OH2            17.7942128566        6.6352687879        9.6085585013  W2        3540            0.0000000000
      7397      2466  TIP3      H1             18.6602328566        7.0020087879        9.4303785013  W2        3540            0.0000000000
      7398      2466  TIP3      H2             17.5474928566        6.1960687879        8.7946385013  W2        3540            0.0000000000
      7399      2467  TIP3      OH2            10.7479828566        6.3458587879        8.2361485013  W2        3544            0.0000000000
      7400      2467  TIP3      H1             10.4804428566        6.6321487879        9.1094585013  W2        3544            0.0000000000
      7401      2467  TIP3      H2             11.5192428566        5.7997787879        8.3883985013  W2        3544            0.0000000000
      7402      2468  TIP3      OH2            27.5737028566       -6.7059512121       10.4343785013  W2        3557            0.0000000000
      7403      2468  TIP3      H1             28.0478728566       -6.1149612121        9.8494685013  W2        3557            0.0000000000
      7404      2468  TIP3      H2             26.8563428566       -6.1756612121       10.7813885013  W2        3557            0.0000000000
      7405      2469  TIP3      OH2            28.2651628566       -2.1760112121        9.0378985013  W2        3561            0.0000000000
      7406      2469  TIP3      H1             28.8811528566       -1.5492912121        9.4173785013  W2        3561            0.0000000000
      7407      2469  TIP3      H2             27.4034228566       -1.8600312121        9.3095485013  W2        3561            0.0000000000
      7408      2470  TIP3      OH2            29.6802028566       -0.2636312121       10.5304585013  W2        3564            0.0000000000
      7409      2470  TIP3      H1             28.9941328566        0.0886187879       11.0974285013  W2        3564            0.0000000000
      7410      2470  TIP3      H2             30.2029928566        0.4993287879       10.2838885013  W2        3564            0.0000000000
      7411      2471  TIP3      OH2            28.6120128566       -4.9854412121        8.5431785013  W2        3565            0.0000000000
      7412      2471  TIP3      H1             28.5672728566       -4.0461312121        8.7218785013  W2        3565            0.0000000000
      7413      2471  TIP3      H2             27.7243328566       -5.2209512121        8.2733885013  W2        3565            0.0000000000
      7414      2472  TIP3      OH2            27.5733128566        2.0458287879        8.8458385013  W2        3572            0.0000000000
      7415      2472  TIP3      H1             28.4872328566        2.1247187879        9.1192285013  W2        3572            0.0000000000
      7416      2472  TIP3      H2             27.5806228566        1.3587887879        8.1793985013  W2        3572            0.0000000000
      7417      2473  TIP3      OH2            27.8849128566      -10.5224412121       10.3134285013  W2        3585            0.0000000000
      7418      2473  TIP3      H1             28.3239828566       -9.9113912121        9.7217785013  W2        3585            0.0000000000
      7419      2473  TIP3      H2             27.2511528566       -9.9840312121       10.7874285013  W2        3585            0.0000000000
      7420      2474  TIP3      OH2            29.7458228566       -8.6062912121        8.7558385013  W2        3587            0.0000000000
      7421      2474  TIP3      H1             30.2371628566       -9.2360512121        8.2283885013  W2        3587            0.0000000000
      7422      2474  TIP3      H2             30.3694528566       -8.3103512121        9.4189585013  W2        3587            0.0000000000
      7423      2475  TIP3      OH2            29.6039828566        6.3458587879        8.2361485013  W2        3589            0.0000000000
      7424      2475  TIP3      H1             29.3364428566        6.6321487879        9.1094585013  W2        3589            0.0000000000
      7425      2475  TIP3      H2             30.3752428566        5.7997787879        8.3883985013  W2        3589            0.0000000000
      7426      2476  TIP3      OH2           -19.6659971434       15.3934087879        8.9590985013  W2        3620            0.0000000000
      7427      2476  TIP3      H1            -18.9650071434       15.4160987879        9.6104985013  W2        3620            0.0000000000
      7428      2476  TIP3      H2            -19.3637071434       14.7653787879        8.3030285013  W2        3620            0.0000000000
      7429      2477  TIP3      OH2           -17.4431971434       16.3075987879       10.5573085013  W2        3629            0.0000000000
      7430      2477  TIP3      H1            -16.8636471434       16.4576287879       11.3041985013  W2        3629            0.0000000000
      7431      2477  TIP3      H2            -17.0291971434       16.7783387879        9.8339485013  W2        3629            0.0000000000
      7432      2478  TIP3      OH2           -13.7443571434        8.0576387879       10.3702785013  W2        3633            0.0000000000
      7433      2478  TIP3      H1            -14.6442871434        8.1965387879       10.6653385013  W2        3633            0.0000000000
      7434      2478  TIP3      H2            -13.4925171434        8.8890987879        9.9684485013  W2        3633            0.0000000000
      7435      2479  TIP3      OH2           -12.5552171434       22.4238787879        8.7466685013  W2        3635            0.0000000000
      7436      2479  TIP3      H1            -12.4818671434       23.3628987879        8.9171985013  W2        3635            0.0000000000
      7437      2479  TIP3      H2            -11.6497071434       22.1187387879        8.6903985013  W2        3635            0.0000000000
      7438      2480  TIP3      OH2           -17.1427971434       25.1549387879        9.4097785013  W2        3642            0.0000000000
      7439      2480  TIP3      H1            -16.7679571434       24.4105487879        8.9390385013  W2        3642            0.0000000000
      7440      2480  TIP3      H2            -17.1384271434       24.8849987879       10.3281085013  W2        3642            0.0000000000
      7441      2481  TIP3      OH2           -15.9658871434       17.3404287879        8.1870985013  W2        3649            0.0000000000
      7442      2481  TIP3      H1            -15.9238071434       17.1178187879        7.2570985013  W2        3649            0.0000000000
      7443      2481  TIP3      H2            -15.1166771434       17.7391387879        8.3770885013  W2        3649            0.0000000000
      7444      2482  TIP3      OH2           -20.3931371434       11.2162487879        8.8574285013  W2        3650            0.0000000000
      7445      2482  TIP3      H1            -20.6466571434       11.2354087879        9.7802385013  W2        3650            0.0000000000
      7446      2482  TIP3      H2            -20.6499271434       10.3447887879        8.5560485013  W2        3650            0.0000000000
      7447      2483  TIP3      OH2           -23.5108471434       11.6618987879        7.9584685013  W2        3657            0.0000000000
      7448      2483  TIP3      H1            -23.9417771434       11.2169087879        8.6882085013  W2        3657            0.0000000000
      7449      2483  TIP3      H2            -24.2289771434       12.0335287879        7.4462185013  W2        3657            0.0000000000
      7450      2484  TIP3      OH2           -28.9942971434       12.1500487879       10.4343785013  W2        3659            0.0000000000
      7451      2484  TIP3      H1            -28.5201271434       12.7410387879        9.8494685013  W2        3659            0.0000000000
      7452      2484  TIP3      H2            -29.7116571434       12.6803387879       10.7813885013  W2        3659            0.0000000000
      7453      2485  TIP3      OH2           -24.8926571434       14.4391887879        9.3409085013  W2        3665            0.0000000000
      7454      2485  TIP3      H1            -25.4351471434       14.0595687879        8.6496685013  W2        3665            0.0000000000
      7455      2485  TIP3      H2            -24.0591671434       14.6336587879        8.9123185013  W2        3665            0.0000000000
      7456      2486  TIP3      OH2           -17.6596971434       11.8187487879        9.4759785013  W2        3673            0.0000000000
      7457      2486  TIP3      H1            -18.5982771434       11.9303087879        9.3248585013  W2        3673            0.0000000000
      7458      2486  TIP3      H2            -17.3624871434       12.6754387879        9.7825485013  W2        3673            0.0000000000
      7459      2487  TIP3      OH2           -16.9413471434       13.6860187879       11.1367185013  W2        3675            0.0000000000
      7460      2487  TIP3      H1            -16.0494471434       13.5485187879       11.4558385013  W2        3675            0.0000000000
      7461      2487  TIP3      H2            -16.8849871434       14.4766287879       10.6000685013  W2        3675            0.0000000000
      7462      2488  TIP3      OH2           -19.4319671434       20.4631887879       10.3021785013  W2        3677            0.0000000000
      7463      2488  TIP3      H1            -19.7271271434       21.2899787879       10.6836585013  W2        3677            0.0000000000
      7464      2488  TIP3      H2            -20.1349671434       19.8438787879       10.4983185013  W2        3677            0.0000000000
      7465      2489  TIP3      OH2           -12.0564771434       13.8954287879       10.8313885013  W2        3681            0.0000000000
      7466      2489  TIP3      H1            -12.6108471434       13.4992287879       10.1591385013  W2        3681            0.0000000000
      7467      2489  TIP3      H2            -11.9561171434       14.8059487879       10.5537185013  W2        3681            0.0000000000
      7468      2490  TIP3      OH2           -28.3028371434       16.6799887879        9.0378985013  W2        3686            0.0000000000
      7469      2490  TIP3      H1            -27.6868471434       17.3067087879        9.4173785013  W2        3686            0.0000000000
      7470      2490  TIP3      H2            -29.1645771434       16.9959687879        9.3095485013  W2        3686            0.0000000000
      7471      2491  TIP3      OH2           -16.3687471434       20.6580487879        9.1166585013  W2        3691            0.0000000000
      7472      2491  TIP3      H1            -16.0154371434       20.2780287879        9.9210085013  W2        3691            0.0000000000
      7473      2491  TIP3      H2            -17.3173971434       20.5645287879        9.2035885013  W2        3691            0.0000000000
      7474      2492  TIP3      OH2           -11.8653071434       25.1372987879        9.3176785013  W2        3693            0.0000000000
      7475      2492  TIP3      H1            -11.1215171434       25.7233487879        9.1778385013  W2        3693            0.0000000000
      7476      2492  TIP3      H2            -12.5594971434       25.7058787879        9.6509185013  W2        3693            0.0000000000
      7477      2493  TIP3      OH2           -22.2779671434       21.7696587879        7.5636585013  W2        3697            0.0000000000
      7478      2493  TIP3      H1            -22.0389871434       21.0214687879        7.0165485013  W2        3697            0.0000000000
      7479      2493  TIP3      H2            -22.5468371434       21.3818287879        8.3964385013  W2        3697            0.0000000000
      7480      2494  TIP3      OH2           -23.3409071434       21.3400387879       10.0199185013  W2        3698            0.0000000000
      7481      2494  TIP3      H1            -23.1941071434       20.8200187879       10.8100085013  W2        3698            0.0000000000
      7482      2494  TIP3      H2            -23.3437371434       22.2467987879       10.3265085013  W2        3698            0.0000000000
      7483      2495  TIP3      OH2           -26.8877971434       18.5923687879       10.5304585013  W2        3699            0.0000000000
      7484      2495  TIP3      H1            -27.5738671434       18.9446187879       11.0974285013  W2        3699            0.0000000000
      7485      2495  TIP3      H2            -26.3650071434       19.3553287879       10.2838885013  W2        3699            0.0000000000
      7486      2496  TIP3      OH2           -20.6031871434       23.0373987879       10.7693385013  W2        3702            0.0000000000
      7487      2496  TIP3      H1            -21.4195771434       23.5343687879       10.8217685013  W2        3702            0.0000000000
      7488      2496  TIP3      H2            -20.0735571434       23.5127487879       10.1292185013  W2        3702            0.0000000000
      7489      2497  TIP3      OH2           -23.2648771434       24.0811187879       10.7510285013  W2        3706            0.0000000000
      7490      2497  TIP3      H1            -23.1040071434       24.8808687879       10.2502885013  W2        3706            0.0000000000
      7491      2497  TIP3      H2            -23.4620971434       24.3877187879       11.6360885013  W2        3706            0.0000000000
      7492      2498  TIP3      OH2           -24.5304371434       10.7790387879       10.3667885013  W2        3707            0.0000000000
      7493      2498  TIP3      H1            -24.6139571434       11.6673487879       10.7134285013  W2        3707            0.0000000000
      7494      2498  TIP3      H2            -23.6404071434       10.5137087879       10.5984685013  W2        3707            0.0000000000
      7495      2499  TIP3      OH2           -26.2719071434       21.2062587879        9.4272385013  W2        3710            0.0000000000
      7496      2499  TIP3      H1            -25.6797571434       21.9057387879        9.7034785013  W2        3710            0.0000000000
      7497      2499  TIP3      H2            -25.8126071434       20.7732087879        8.7076985013  W2        3710            0.0000000000
      7498      2500  TIP3      OH2           -27.9559871434       13.8705587879        8.5431785013  W2        3711            0.0000000000
      7499      2500  TIP3      H1            -28.0007271434       14.8098687879        8.7218785013  W2        3711            0.0000000000
      7500      2500  TIP3      H2            -28.8436671434       13.6350487879        8.2733885013  W2        3711            0.0000000000
      7501      2501  TIP3      OH2           -20.2397871434       23.6327987879        7.7022585013  W2        3717            0.0000000000
      7502      2501  TIP3      H1            -20.8836871434       23.0016587879        8.0236285013  W2        3717            0.0000000000
      7503      2501  TIP3      H2            -19.4779571434       23.1015987879        7.4706085013  W2        3717            0.0000000000
      7504      2502  TIP3      OH2           -15.6354971434       23.4497887879        7.9360585013  W2        3719            0.0000000000
      7505      2502  TIP3      H1            -15.3524571434       22.6553087879        8.3887485013  W2        3719            0.0000000000
      7506      2502  TIP3      H2            -14.8957071434       23.6828887879        7.3751685013  W2        3719            0.0000000000
      7507      2503  TIP3      OH2           -24.6807671434       19.3592787879        7.7935485013  W2        3721            0.0000000000
      7508      2503  TIP3      H1            -24.6163571434       18.5652387879        8.3241885013  W2        3721            0.0000000000
      7509      2503  TIP3      H2            -24.0278471434       19.2405587879        7.1037485013  W2        3721            0.0000000000
      7510      2504  TIP3      OH2           -19.3284271434       20.4064487879        7.5293485013  W2        3723            0.0000000000
      7511      2504  TIP3      H1            -19.5970171434       20.5866587879        8.4302385013  W2        3723            0.0000000000
      7512      2504  TIP3      H2            -19.5348671434       19.4810687879        7.3979285013  W2        3723            0.0000000000
      7513      2505  TIP3      OH2           -23.5313871434       17.3318987879       10.0993485013  W2        3726            0.0000000000
      7514      2505  TIP3      H1            -23.9911871434       16.8477287879       10.7851985013  W2        3726            0.0000000000
      7515      2505  TIP3      H2            -23.2765171434       16.6634387879        9.4633985013  W2        3726            0.0000000000
      7516      2506  TIP3      OH2           -22.4603471434       15.5750787879        8.3616685013  W2        3728            0.0000000000
      7517      2506  TIP3      H1            -22.6408471434       15.4201987879        7.4344985013  W2        3728            0.0000000000
      7518      2506  TIP3      H2            -21.5102971434       15.6829487879        8.4064585013  W2        3728            0.0000000000
      7519      2507  TIP3      OH2           -13.0705171434       17.9294987879        7.8074785013  W2        3730            0.0000000000
      7520      2507  TIP3      H1            -13.3440371434       17.5050487879        6.9943085013  W2        3730            0.0000000000
      7521      2507  TIP3      H2            -13.0311071434       18.8609487879        7.5905185013  W2        3730            0.0000000000
      7522      2508  TIP3      OH2           -22.5631771434       26.2654487879        9.3630285013  W2        3744            0.0000000000
      7523      2508  TIP3      H1            -21.6301071434       26.4233187879        9.5068685013  W2        3744            0.0000000000
      7524      2508  TIP3      H2            -22.8272971434       26.9407487879        8.7381785013  W2        3744            0.0000000000
      7525      2509  TIP3      OH2           -28.9946871434       20.9018287879        8.8458385013  W2        3745            0.0000000000
      7526      2509  TIP3      H1            -28.0807671434       20.9807187879        9.1192285013  W2        3745            0.0000000000
      7527      2509  TIP3      H2            -28.9873771434       20.2147887879        8.1793985013  W2        3745            0.0000000000
      7528      2510  TIP3      OH2           -11.9493671434       16.7528987879        9.9972185013  W2        3755            0.0000000000
      7529      2510  TIP3      H1            -12.4712571434       17.1093087879        9.2783085013  W2        3755            0.0000000000
      7530      2510  TIP3      H2            -11.9824471434       17.4276787879       10.6753085013  W2        3755            0.0000000000
      7531      2511  TIP3      OH2           -13.6004671434       13.9924587879        8.5479285013  W2        3756            0.0000000000
      7532      2511  TIP3      H1            -13.5040271434       14.6591587879        7.8678985013  W2        3756            0.0000000000
      7533      2511  TIP3      H2            -13.7405071434       13.1770887879        8.0664785013  W2        3756            0.0000000000
      7534      2512  TIP3      OH2           -14.3530871434       11.4004387879        7.6654785013  W2        3761            0.0000000000
      7535      2512  TIP3      H1            -13.7425071434       11.0291187879        8.3022985013  W2        3761            0.0000000000
      7536      2512  TIP3      H2            -15.1899371434       10.9791287879        7.8614785013  W2        3761            0.0000000000
      7537      2513  TIP3      OH2           -12.2404171434       10.2860187879        9.2076985013  W2        3771            0.0000000000
      7538      2513  TIP3      H1            -11.8281571434        9.5645887879        8.7324985013  W2        3771            0.0000000000
      7539      2513  TIP3      H2            -11.5587671434       10.9554787879        9.2661285013  W2        3771            0.0000000000
      7540      2514  TIP3      OH2           -28.6830871434        8.3335587879       10.3134285013  W2        3792            0.0000000000
      7541      2514  TIP3      H1            -28.2440171434        8.9446087879        9.7217785013  W2        3792            0.0000000000
      7542      2514  TIP3      H2            -29.3168471434        8.8719687879       10.7874285013  W2        3792            0.0000000000
      7543      2515  TIP3      OH2           -26.8221771434       10.2497087879        8.7558385013  W2        3797            0.0000000000
      7544      2515  TIP3      H1            -26.3308371434        9.6199487879        8.2283885013  W2        3797            0.0000000000
      7545      2515  TIP3      H2            -26.1985471434       10.5456487879        9.4189585013  W2        3797            0.0000000000
      7546      2516  TIP3      OH2           -19.9177871434       25.4912687879        9.6085585013  W2        3799            0.0000000000
      7547      2516  TIP3      H1            -19.0517671434       25.8580087879        9.4303785013  W2        3799            0.0000000000
      7548      2516  TIP3      H2            -20.1645071434       25.0520687879        8.7946385013  W2        3799            0.0000000000
      7549      2517  TIP3      OH2           -26.9640171434       25.2018587879        8.2361485013  W2        3803            0.0000000000
      7550      2517  TIP3      H1            -27.2315571434       25.4881487879        9.1094585013  W2        3803            0.0000000000
      7551      2517  TIP3      H2            -26.1927571434       24.6557787879        8.3883985013  W2        3803            0.0000000000
      7552      2518  TIP3      OH2            -0.8099971434       15.3934087879        8.9590985013  W2        3836            0.0000000000
      7553      2518  TIP3      H1             -0.1090071434       15.4160987879        9.6104985013  W2        3836            0.0000000000
      7554      2518  TIP3      H2             -0.5077071434       14.7653787879        8.3030285013  W2        3836            0.0000000000
      7555      2519  TIP3      OH2             1.4128028566       16.3075987879       10.5573085013  W2        3845            0.0000000000
      7556      2519  TIP3      H1              1.9923528566       16.4576287879       11.3041985013  W2        3845            0.0000000000
      7557      2519  TIP3      H2              1.8268028566       16.7783387879        9.8339485013  W2        3845            0.0000000000
      7558      2520  TIP3      OH2             5.1116428566        8.0576387879       10.3702785013  W2        3849            0.0000000000
      7559      2520  TIP3      H1              4.2117128566        8.1965387879       10.6653385013  W2        3849            0.0000000000
      7560      2520  TIP3      H2              5.3634828566        8.8890987879        9.9684485013  W2        3849            0.0000000000
      7561      2521  TIP3      OH2             6.3007828566       22.4238787879        8.7466685013  W2        3851            0.0000000000
      7562      2521  TIP3      H1              6.3741328566       23.3628987879        8.9171985013  W2        3851            0.0000000000
      7563      2521  TIP3      H2              7.2062928566       22.1187387879        8.6903985013  W2        3851            0.0000000000
      7564      2522  TIP3      OH2             1.7132028566       25.1549387879        9.4097785013  W2        3858            0.0000000000
      7565      2522  TIP3      H1              2.0880428566       24.4105487879        8.9390385013  W2        3858            0.0000000000
      7566      2522  TIP3      H2              1.7175728566       24.8849987879       10.3281085013  W2        3858            0.0000000000
      7567      2523  TIP3      OH2             2.8901128566       17.3404287879        8.1870985013  W2        3865            0.0000000000
      7568      2523  TIP3      H1              2.9321928566       17.1178187879        7.2570985013  W2        3865            0.0000000000
      7569      2523  TIP3      H2              3.7393228566       17.7391387879        8.3770885013  W2        3865            0.0000000000
      7570      2524  TIP3      OH2            -1.5371371434       11.2162487879        8.8574285013  W2        3866            0.0000000000
      7571      2524  TIP3      H1             -1.7906571434       11.2354087879        9.7802385013  W2        3866            0.0000000000
      7572      2524  TIP3      H2             -1.7939271434       10.3447887879        8.5560485013  W2        3866            0.0000000000
      7573      2525  TIP3      OH2            -4.6548471434       11.6618987879        7.9584685013  W2        3873            0.0000000000
      7574      2525  TIP3      H1             -5.0857771434       11.2169087879        8.6882085013  W2        3873            0.0000000000
      7575      2525  TIP3      H2             -5.3729771434       12.0335287879        7.4462185013  W2        3873            0.0000000000
      7576      2526  TIP3      OH2           -10.1382971434       12.1500487879       10.4343785013  W2        3875            0.0000000000
      7577      2526  TIP3      H1             -9.6641271434       12.7410387879        9.8494685013  W2        3875            0.0000000000
      7578      2526  TIP3      H2            -10.8556571434       12.6803387879       10.7813885013  W2        3875            0.0000000000
      7579      2527  TIP3      OH2            -6.0366571434       14.4391887879        9.3409085013  W2        3881            0.0000000000
      7580      2527  TIP3      H1             -6.5791471434       14.0595687879        8.6496685013  W2        3881            0.0000000000
      7581      2527  TIP3      H2             -5.2031671434       14.6336587879        8.9123185013  W2        3881            0.0000000000
      7582      2528  TIP3      OH2             1.1963028566       11.8187487879        9.4759785013  W2        3889            0.0000000000
      7583      2528  TIP3      H1              0.2577228566       11.9303087879        9.3248585013  W2        3889            0.0000000000
      7584      2528  TIP3      H2              1.4935128566       12.6754387879        9.7825485013  W2        3889            0.0000000000
      7585      2529  TIP3      OH2             1.9146528566       13.6860187879       11.1367185013  W2        3891            0.0000000000
      7586      2529  TIP3      H1              2.8065528566       13.5485187879       11.4558385013  W2        3891            0.0000000000
      7587      2529  TIP3      H2              1.9710128566       14.4766287879       10.6000685013  W2        3891            0.0000000000
      7588      2530  TIP3      OH2            -0.5759671434       20.4631887879       10.3021785013  W2        3893            0.0000000000
      7589      2530  TIP3      H1             -0.8711271434       21.2899787879       10.6836585013  W2        3893            0.0000000000
      7590      2530  TIP3      H2             -1.2789671434       19.8438787879       10.4983185013  W2        3893            0.0000000000
      7591      2531  TIP3      OH2             6.7995228566       13.8954287879       10.8313885013  W2        3897            0.0000000000
      7592      2531  TIP3      H1              6.2451528566       13.4992287879       10.1591385013  W2        3897            0.0000000000
      7593      2531  TIP3      H2              6.8998828566       14.8059487879       10.5537185013  W2        3897            0.0000000000
      7594      2532  TIP3      OH2            -9.4468371434       16.6799887879        9.0378985013  W2        3902            0.0000000000
      7595      2532  TIP3      H1             -8.8308471434       17.3067087879        9.4173785013  W2        3902            0.0000000000
      7596      2532  TIP3      H2            -10.3085771434       16.9959687879        9.3095485013  W2        3902            0.0000000000
      7597      2533  TIP3      OH2             2.4872528566       20.6580487879        9.1166585013  W2        3907            0.0000000000
      7598      2533  TIP3      H1              2.8405628566       20.2780287879        9.9210085013  W2        3907            0.0000000000
      7599      2533  TIP3      H2              1.5386028566       20.5645287879        9.2035885013  W2        3907            0.0000000000
      7600      2534  TIP3      OH2             6.9906928566       25.1372987879        9.3176785013  W2        3909            0.0000000000
      7601      2534  TIP3      H1              7.7344828566       25.7233487879        9.1778385013  W2        3909            0.0000000000
      7602      2534  TIP3      H2              6.2965028566       25.7058787879        9.6509185013  W2        3909            0.0000000000
      7603      2535  TIP3      OH2            -3.4219671434       21.7696587879        7.5636585013  W2        3913            0.0000000000
      7604      2535  TIP3      H1             -3.1829871434       21.0214687879        7.0165485013  W2        3913            0.0000000000
      7605      2535  TIP3      H2             -3.6908371434       21.3818287879        8.3964385013  W2        3913            0.0000000000
      7606      2536  TIP3      OH2            -4.4849071434       21.3400387879       10.0199185013  W2        3914            0.0000000000
      7607      2536  TIP3      H1             -4.3381071434       20.8200187879       10.8100085013  W2        3914            0.0000000000
      7608      2536  TIP3      H2             -4.4877371434       22.2467987879       10.3265085013  W2        3914            0.0000000000
      7609      2537  TIP3      OH2            -8.0317971434       18.5923687879       10.5304585013  W2        3915            0.0000000000
      7610      2537  TIP3      H1             -8.7178671434       18.9446187879       11.0974285013  W2        3915            0.0000000000
      7611      2537  TIP3      H2             -7.5090071434       19.3553287879       10.2838885013  W2        3915            0.0000000000
      7612      2538  TIP3      OH2            -1.7471871434       23.0373987879       10.7693385013  W2        3918            0.0000000000
      7613      2538  TIP3      H1             -2.5635771434       23.5343687879       10.8217685013  W2        3918            0.0000000000
      7614      2538  TIP3      H2             -1.2175571434       23.5127487879       10.1292185013  W2        3918            0.0000000000
      7615      2539  TIP3      OH2            -4.4088771434       24.0811187879       10.7510285013  W2        3922            0.0000000000
      7616      2539  TIP3      H1             -4.2480071434       24.8808687879       10.2502885013  W2        3922            0.0000000000
      7617      2539  TIP3      H2             -4.6060971434       24.3877187879       11.6360885013  W2        3922            0.0000000000
      7618      2540  TIP3      OH2            -5.6744371434       10.7790387879       10.3667885013  W2        3923            0.0000000000
      7619      2540  TIP3      H1             -5.7579571434       11.6673487879       10.7134285013  W2        3923            0.0000000000
      7620      2540  TIP3      H2             -4.7844071434       10.5137087879       10.5984685013  W2        3923            0.0000000000
      7621      2541  TIP3      OH2            -7.4159071434       21.2062587879        9.4272385013  W2        3926            0.0000000000
      7622      2541  TIP3      H1             -6.8237571434       21.9057387879        9.7034785013  W2        3926            0.0000000000
      7623      2541  TIP3      H2             -6.9566071434       20.7732087879        8.7076985013  W2        3926            0.0000000000
      7624      2542  TIP3      OH2            -9.0999871434       13.8705587879        8.5431785013  W2        3927            0.0000000000
      7625      2542  TIP3      H1             -9.1447271434       14.8098687879        8.7218785013  W2        3927            0.0000000000
      7626      2542  TIP3      H2             -9.9876671434       13.6350487879        8.2733885013  W2        3927            0.0000000000
      7627      2543  TIP3      OH2            -1.3837871434       23.6327987879        7.7022585013  W2        3933            0.0000000000
      7628      2543  TIP3      H1             -2.0276871434       23.0016587879        8.0236285013  W2        3933            0.0000000000
      7629      2543  TIP3      H2             -0.6219571434       23.1015987879        7.4706085013  W2        3933            0.0000000000
      7630      2544  TIP3      OH2             3.2205028566       23.4497887879        7.9360585013  W2        3935            0.0000000000
      7631      2544  TIP3      H1              3.5035428566       22.6553087879        8.3887485013  W2        3935            0.0000000000
      7632      2544  TIP3      H2              3.9602928566       23.6828887879        7.3751685013  W2        3935            0.0000000000
      7633      2545  TIP3      OH2            -5.8247671434       19.3592787879        7.7935485013  W2        3937            0.0000000000
      7634      2545  TIP3      H1             -5.7603571434       18.5652387879        8.3241885013  W2        3937            0.0000000000
      7635      2545  TIP3      H2             -5.1718471434       19.2405587879        7.1037485013  W2        3937            0.0000000000
      7636      2546  TIP3      OH2            -0.4724271434       20.4064487879        7.5293485013  W2        3939            0.0000000000
      7637      2546  TIP3      H1             -0.7410171434       20.5866587879        8.4302385013  W2        3939            0.0000000000
      7638      2546  TIP3      H2             -0.6788671434       19.4810687879        7.3979285013  W2        3939            0.0000000000
      7639      2547  TIP3      OH2            -4.6753871434       17.3318987879       10.0993485013  W2        3942            0.0000000000
      7640      2547  TIP3      H1             -5.1351871434       16.8477287879       10.7851985013  W2        3942            0.0000000000
      7641      2547  TIP3      H2             -4.4205171434       16.6634387879        9.4633985013  W2        3942            0.0000000000
      7642      2548  TIP3      OH2            -3.6043471434       15.5750787879        8.3616685013  W2        3944            0.0000000000
      7643      2548  TIP3      H1             -3.7848471434       15.4201987879        7.4344985013  W2        3944            0.0000000000
      7644      2548  TIP3      H2             -2.6542971434       15.6829487879        8.4064585013  W2        3944            0.0000000000
      7645      2549  TIP3      OH2             5.7854828566       17.9294987879        7.8074785013  W2        3946            0.0000000000
      7646      2549  TIP3      H1              5.5119628566       17.5050487879        6.9943085013  W2        3946            0.0000000000
      7647      2549  TIP3      H2              5.8248928566       18.8609487879        7.5905185013  W2        3946            0.0000000000
      7648      2550  TIP3      OH2            -3.7071771434       26.2654487879        9.3630285013  W2        3960            0.0000000000
      7649      2550  TIP3      H1             -2.7741071434       26.4233187879        9.5068685013  W2        3960            0.0000000000
      7650      2550  TIP3      H2             -3.9712971434       26.9407487879        8.7381785013  W2        3960            0.0000000000
      7651      2551  TIP3      OH2           -10.1386871434       20.9018287879        8.8458385013  W2        3961            0.0000000000
      7652      2551  TIP3      H1             -9.2247671434       20.9807187879        9.1192285013  W2        3961            0.0000000000
      7653      2551  TIP3      H2            -10.1313771434       20.2147887879        8.1793985013  W2        3961            0.0000000000
      7654      2552  TIP3      OH2             6.9066328566       16.7528987879        9.9972185013  W2        3971            0.0000000000
      7655      2552  TIP3      H1              6.3847428566       17.1093087879        9.2783085013  W2        3971            0.0000000000
      7656      2552  TIP3      H2              6.8735528566       17.4276787879       10.6753085013  W2        3971            0.0000000000
      7657      2553  TIP3      OH2             5.2555328566       13.9924587879        8.5479285013  W2        3972            0.0000000000
      7658      2553  TIP3      H1              5.3519728566       14.6591587879        7.8678985013  W2        3972            0.0000000000
      7659      2553  TIP3      H2              5.1154928566       13.1770887879        8.0664785013  W2        3972            0.0000000000
      7660      2554  TIP3      OH2             4.5029128566       11.4004387879        7.6654785013  W2        3977            0.0000000000
      7661      2554  TIP3      H1              5.1134928566       11.0291187879        8.3022985013  W2        3977            0.0000000000
      7662      2554  TIP3      H2              3.6660628566       10.9791287879        7.8614785013  W2        3977            0.0000000000
      7663      2555  TIP3      OH2             6.6155828566       10.2860187879        9.2076985013  W2        3987            0.0000000000
      7664      2555  TIP3      H1              7.0278428566        9.5645887879        8.7324985013  W2        3987            0.0000000000
      7665      2555  TIP3      H2              7.2972328566       10.9554787879        9.2661285013  W2        3987            0.0000000000
      7666      2556  TIP3      OH2            -9.8270871434        8.3335587879       10.3134285013  W2        4008            0.0000000000
      7667      2556  TIP3      H1             -9.3880171434        8.9446087879        9.7217785013  W2        4008            0.0000000000
      7668      2556  TIP3      H2            -10.4608471434        8.8719687879       10.7874285013  W2        4008            0.0000000000
      7669      2557  TIP3      OH2            -7.9661771434       10.2497087879        8.7558385013  W2        4013            0.0000000000
      7670      2557  TIP3      H1             -7.4748371434        9.6199487879        8.2283885013  W2        4013            0.0000000000
      7671      2557  TIP3      H2             -7.3425471434       10.5456487879        9.4189585013  W2        4013            0.0000000000
      7672      2558  TIP3      OH2            -1.0617871434       25.4912687879        9.6085585013  W2        4015            0.0000000000
      7673      2558  TIP3      H1             -0.1957671434       25.8580087879        9.4303785013  W2        4015            0.0000000000
      7674      2558  TIP3      H2             -1.3085071434       25.0520687879        8.7946385013  W2        4015            0.0000000000
      7675      2559  TIP3      OH2            -8.1080171434       25.2018587879        8.2361485013  W2        4019            0.0000000000
      7676      2559  TIP3      H1             -8.3755571434       25.4881487879        9.1094585013  W2        4019            0.0000000000
      7677      2559  TIP3      H2             -7.3367571434       24.6557787879        8.3883985013  W2        4019            0.0000000000
      7678      2560  TIP3      OH2            18.0460028566       15.3934087879        8.9590985013  W2        4052            0.0000000000
      7679      2560  TIP3      H1             18.7469928566       15.4160987879        9.6104985013  W2        4052            0.0000000000
      7680      2560  TIP3      H2             18.3482928566       14.7653787879        8.3030285013  W2        4052            0.0000000000
      7681      2561  TIP3      OH2            20.2688028566       16.3075987879       10.5573085013  W2        4061            0.0000000000
      7682      2561  TIP3      H1             20.8483528566       16.4576287879       11.3041985013  W2        4061            0.0000000000
      7683      2561  TIP3      H2             20.6828028566       16.7783387879        9.8339485013  W2        4061            0.0000000000
      7684      2562  TIP3      OH2            23.9676428566        8.0576387879       10.3702785013  W2        4065            0.0000000000
      7685      2562  TIP3      H1             23.0677128566        8.1965387879       10.6653385013  W2        4065            0.0000000000
      7686      2562  TIP3      H2             24.2194828566        8.8890987879        9.9684485013  W2        4065            0.0000000000
      7687      2563  TIP3      OH2            25.1567828566       22.4238787879        8.7466685013  W2        4067            0.0000000000
      7688      2563  TIP3      H1             25.2301328566       23.3628987879        8.9171985013  W2        4067            0.0000000000
      7689      2563  TIP3      H2             26.0622928566       22.1187387879        8.6903985013  W2        4067            0.0000000000
      7690      2564  TIP3      OH2            20.5692028566       25.1549387879        9.4097785013  W2        4074            0.0000000000
      7691      2564  TIP3      H1             20.9440428566       24.4105487879        8.9390385013  W2        4074            0.0000000000
      7692      2564  TIP3      H2             20.5735728566       24.8849987879       10.3281085013  W2        4074            0.0000000000
      7693      2565  TIP3      OH2            21.7461128566       17.3404287879        8.1870985013  W2        4081            0.0000000000
      7694      2565  TIP3      H1             21.7881928566       17.1178187879        7.2570985013  W2        4081            0.0000000000
      7695      2565  TIP3      H2             22.5953228566       17.7391387879        8.3770885013  W2        4081            0.0000000000
      7696      2566  TIP3      OH2            17.3188628566       11.2162487879        8.8574285013  W2        4082            0.0000000000
      7697      2566  TIP3      H1             17.0653428566       11.2354087879        9.7802385013  W2        4082            0.0000000000
      7698      2566  TIP3      H2             17.0620728566       10.3447887879        8.5560485013  W2        4082            0.0000000000
      7699      2567  TIP3      OH2            14.2011528566       11.6618987879        7.9584685013  W2        4089            0.0000000000
      7700      2567  TIP3      H1             13.7702228566       11.2169087879        8.6882085013  W2        4089            0.0000000000
      7701      2567  TIP3      H2             13.4830228566       12.0335287879        7.4462185013  W2        4089            0.0000000000
      7702      2568  TIP3      OH2             8.7177028566       12.1500487879       10.4343785013  W2        4091            0.0000000000
      7703      2568  TIP3      H1              9.1918728566       12.7410387879        9.8494685013  W2        4091            0.0000000000
      7704      2568  TIP3      H2              8.0003428566       12.6803387879       10.7813885013  W2        4091            0.0000000000
      7705      2569  TIP3      OH2            12.8193428566       14.4391887879        9.3409085013  W2        4097            0.0000000000
      7706      2569  TIP3      H1             12.2768528566       14.0595687879        8.6496685013  W2        4097            0.0000000000
      7707      2569  TIP3      H2             13.6528328566       14.6336587879        8.9123185013  W2        4097            0.0000000000
      7708      2570  TIP3      OH2            20.0523028566       11.8187487879        9.4759785013  W2        4105            0.0000000000
      7709      2570  TIP3      H1             19.1137228566       11.9303087879        9.3248585013  W2        4105            0.0000000000
      7710      2570  TIP3      H2             20.3495128566       12.6754387879        9.7825485013  W2        4105            0.0000000000
      7711      2571  TIP3      OH2            20.7706528566       13.6860187879       11.1367185013  W2        4107            0.0000000000
      7712      2571  TIP3      H1             21.6625528566       13.5485187879       11.4558385013  W2        4107            0.0000000000
      7713      2571  TIP3      H2             20.8270128566       14.4766287879       10.6000685013  W2        4107            0.0000000000
      7714      2572  TIP3      OH2            18.2800328566       20.4631887879       10.3021785013  W2        4109            0.0000000000
      7715      2572  TIP3      H1             17.9848728566       21.2899787879       10.6836585013  W2        4109            0.0000000000
      7716      2572  TIP3      H2             17.5770328566       19.8438787879       10.4983185013  W2        4109            0.0000000000
      7717      2573  TIP3      OH2            25.6555228566       13.8954287879       10.8313885013  W2        4113            0.0000000000
      7718      2573  TIP3      H1             25.1011528566       13.4992287879       10.1591385013  W2        4113            0.0000000000
      7719      2573  TIP3      H2             25.7558828566       14.8059487879       10.5537185013  W2        4113            0.0000000000
      7720      2574  TIP3      OH2             9.4091628566       16.6799887879        9.0378985013  W2        4118            0.0000000000
      7721      2574  TIP3      H1             10.0251528566       17.3067087879        9.4173785013  W2        4118            0.0000000000
      7722      2574  TIP3      H2              8.5474228566       16.9959687879        9.3095485013  W2        4118            0.0000000000
      7723      2575  TIP3      OH2            21.3432528566       20.6580487879        9.1166585013  W2        4123            0.0000000000
      7724      2575  TIP3      H1             21.6965628566       20.2780287879        9.9210085013  W2        4123            0.0000000000
      7725      2575  TIP3      H2             20.3946028566       20.5645287879        9.2035885013  W2        4123            0.0000000000
      7726      2576  TIP3      OH2            25.8466928566       25.1372987879        9.3176785013  W2        4125            0.0000000000
      7727      2576  TIP3      H1             26.5904828566       25.7233487879        9.1778385013  W2        4125            0.0000000000
      7728      2576  TIP3      H2             25.1525028566       25.7058787879        9.6509185013  W2        4125            0.0000000000
      7729      2577  TIP3      OH2            15.4340328566       21.7696587879        7.5636585013  W2        4129            0.0000000000
      7730      2577  TIP3      H1             15.6730128566       21.0214687879        7.0165485013  W2        4129            0.0000000000
      7731      2577  TIP3      H2             15.1651628566       21.3818287879        8.3964385013  W2        4129            0.0000000000
      7732      2578  TIP3      OH2            14.3710928566       21.3400387879       10.0199185013  W2        4130            0.0000000000
      7733      2578  TIP3      H1             14.5178928566       20.8200187879       10.8100085013  W2        4130            0.0000000000
      7734      2578  TIP3      H2             14.3682628566       22.2467987879       10.3265085013  W2        4130            0.0000000000
      7735      2579  TIP3      OH2            10.8242028566       18.5923687879       10.5304585013  W2        4131            0.0000000000
      7736      2579  TIP3      H1             10.1381328566       18.9446187879       11.0974285013  W2        4131            0.0000000000
      7737      2579  TIP3      H2             11.3469928566       19.3553287879       10.2838885013  W2        4131            0.0000000000
      7738      2580  TIP3      OH2            17.1088128566       23.0373987879       10.7693385013  W2        4134            0.0000000000
      7739      2580  TIP3      H1             16.2924228566       23.5343687879       10.8217685013  W2        4134            0.0000000000
      7740      2580  TIP3      H2             17.6384428566       23.5127487879       10.1292185013  W2        4134            0.0000000000
      7741      2581  TIP3      OH2            14.4471228566       24.0811187879       10.7510285013  W2        4138            0.0000000000
      7742      2581  TIP3      H1             14.6079928566       24.8808687879       10.2502885013  W2        4138            0.0000000000
      7743      2581  TIP3      H2             14.2499028566       24.3877187879       11.6360885013  W2        4138            0.0000000000
      7744      2582  TIP3      OH2            13.1815628566       10.7790387879       10.3667885013  W2        4139            0.0000000000
      7745      2582  TIP3      H1             13.0980428566       11.6673487879       10.7134285013  W2        4139            0.0000000000
      7746      2582  TIP3      H2             14.0715928566       10.5137087879       10.5984685013  W2        4139            0.0000000000
      7747      2583  TIP3      OH2            11.4400928566       21.2062587879        9.4272385013  W2        4142            0.0000000000
      7748      2583  TIP3      H1             12.0322428566       21.9057387879        9.7034785013  W2        4142            0.0000000000
      7749      2583  TIP3      H2             11.8993928566       20.7732087879        8.7076985013  W2        4142            0.0000000000
      7750      2584  TIP3      OH2             9.7560128566       13.8705587879        8.5431785013  W2        4143            0.0000000000
      7751      2584  TIP3      H1              9.7112728566       14.8098687879        8.7218785013  W2        4143            0.0000000000
      7752      2584  TIP3      H2              8.8683328566       13.6350487879        8.2733885013  W2        4143            0.0000000000
      7753      2585  TIP3      OH2            17.4722128566       23.6327987879        7.7022585013  W2        4149            0.0000000000
      7754      2585  TIP3      H1             16.8283128566       23.0016587879        8.0236285013  W2        4149            0.0000000000
      7755      2585  TIP3      H2             18.2340428566       23.1015987879        7.4706085013  W2        4149            0.0000000000
      7756      2586  TIP3      OH2            22.0765028566       23.4497887879        7.9360585013  W2        4151            0.0000000000
      7757      2586  TIP3      H1             22.3595428566       22.6553087879        8.3887485013  W2        4151            0.0000000000
      7758      2586  TIP3      H2             22.8162928566       23.6828887879        7.3751685013  W2        4151            0.0000000000
      7759      2587  TIP3      OH2            13.0312328566       19.3592787879        7.7935485013  W2        4153            0.0000000000
      7760      2587  TIP3      H1             13.0956428566       18.5652387879        8.3241885013  W2        4153            0.0000000000
      7761      2587  TIP3      H2             13.6841528566       19.2405587879        7.1037485013  W2        4153            0.0000000000
      7762      2588  TIP3      OH2            18.3835728566       20.4064487879        7.5293485013  W2        4155            0.0000000000
      7763      2588  TIP3      H1             18.1149828566       20.5866587879        8.4302385013  W2        4155            0.0000000000
      7764      2588  TIP3      H2             18.1771328566       19.4810687879        7.3979285013  W2        4155            0.0000000000
      7765      2589  TIP3      OH2            14.1806128566       17.3318987879       10.0993485013  W2        4158            0.0000000000
      7766      2589  TIP3      H1             13.7208128566       16.8477287879       10.7851985013  W2        4158            0.0000000000
      7767      2589  TIP3      H2             14.4354828566       16.6634387879        9.4633985013  W2        4158            0.0000000000
      7768      2590  TIP3      OH2            15.2516528566       15.5750787879        8.3616685013  W2        4160            0.0000000000
      7769      2590  TIP3      H1             15.0711528566       15.4201987879        7.4344985013  W2        4160            0.0000000000
      7770      2590  TIP3      H2             16.2017028566       15.6829487879        8.4064585013  W2        4160            0.0000000000
      7771      2591  TIP3      OH2            24.6414828566       17.9294987879        7.8074785013  W2        4162            0.0000000000
      7772      2591  TIP3      H1             24.3679628566       17.5050487879        6.9943085013  W2        4162            0.0000000000
      7773      2591  TIP3      H2             24.6808928566       18.8609487879        7.5905185013  W2        4162            0.0000000000
      7774      2592  TIP3      OH2            15.1488228566       26.2654487879        9.3630285013  W2        4176            0.0000000000
      7775      2592  TIP3      H1             16.0818928566       26.4233187879        9.5068685013  W2        4176            0.0000000000
      7776      2592  TIP3      H2             14.8847028566       26.9407487879        8.7381785013  W2        4176            0.0000000000
      7777      2593  TIP3      OH2             8.7173128566       20.9018287879        8.8458385013  W2        4177            0.0000000000
      7778      2593  TIP3      H1              9.6312328566       20.9807187879        9.1192285013  W2        4177            0.0000000000
      7779      2593  TIP3      H2              8.7246228566       20.2147887879        8.1793985013  W2        4177            0.0000000000
      7780      2594  TIP3      OH2            25.7626328566       16.7528987879        9.9972185013  W2        4187            0.0000000000
      7781      2594  TIP3      H1             25.2407428566       17.1093087879        9.2783085013  W2        4187            0.0000000000
      7782      2594  TIP3      H2             25.7295528566       17.4276787879       10.6753085013  W2        4187            0.0000000000
      7783      2595  TIP3      OH2            24.1115328566       13.9924587879        8.5479285013  W2        4188            0.0000000000
      7784      2595  TIP3      H1             24.2079728566       14.6591587879        7.8678985013  W2        4188            0.0000000000
      7785      2595  TIP3      H2             23.9714928566       13.1770887879        8.0664785013  W2        4188            0.0000000000
      7786      2596  TIP3      OH2            23.3589128566       11.4004387879        7.6654785013  W2        4193            0.0000000000
      7787      2596  TIP3      H1             23.9694928566       11.0291187879        8.3022985013  W2        4193            0.0000000000
      7788      2596  TIP3      H2             22.5220628566       10.9791287879        7.8614785013  W2        4193            0.0000000000
      7789      2597  TIP3      OH2            25.4715828566       10.2860187879        9.2076985013  W2        4203            0.0000000000
      7790      2597  TIP3      H1             25.8838428566        9.5645887879        8.7324985013  W2        4203            0.0000000000
      7791      2597  TIP3      H2             26.1532328566       10.9554787879        9.2661285013  W2        4203            0.0000000000
      7792      2598  TIP3      OH2             9.0289128566        8.3335587879       10.3134285013  W2        4224            0.0000000000
      7793      2598  TIP3      H1              9.4679828566        8.9446087879        9.7217785013  W2        4224            0.0000000000
      7794      2598  TIP3      H2              8.3951528566        8.8719687879       10.7874285013  W2        4224            0.0000000000
      7795      2599  TIP3      OH2            10.8898228566       10.2497087879        8.7558385013  W2        4229            0.0000000000
      7796      2599  TIP3      H1             11.3811628566        9.6199487879        8.2283885013  W2        4229            0.0000000000
      7797      2599  TIP3      H2             11.5134528566       10.5456487879        9.4189585013  W2        4229            0.0000000000
      7798      2600  TIP3      OH2            17.7942128566       25.4912687879        9.6085585013  W2        4231            0.0000000000
      7799      2600  TIP3      H1             18.6602328566       25.8580087879        9.4303785013  W2        4231            0.0000000000
      7800      2600  TIP3      H2             17.5474928566       25.0520687879        8.7946385013  W2        4231            0.0000000000
      7801      2601  TIP3      OH2            10.7479828566       25.2018587879        8.2361485013  W2        4235            0.0000000000
      7802      2601  TIP3      H1             10.4804428566       25.4881487879        9.1094585013  W2        4235            0.0000000000
      7803      2601  TIP3      H2             11.5192428566       24.6557787879        8.3883985013  W2        4235            0.0000000000
      7804      2602  TIP3      OH2            27.5737028566       12.1500487879       10.4343785013  W2        4248            0.0000000000
      7805      2602  TIP3      H1             28.0478728566       12.7410387879        9.8494685013  W2        4248            0.0000000000
      7806      2602  TIP3      H2             26.8563428566       12.6803387879       10.7813885013  W2        4248            0.0000000000
      7807      2603  TIP3      OH2            28.2651628566       16.6799887879        9.0378985013  W2        4252            0.0000000000
      7808      2603  TIP3      H1             28.8811528566       17.3067087879        9.4173785013  W2        4252            0.0000000000
      7809      2603  TIP3      H2             27.4034228566       16.9959687879        9.3095485013  W2        4252            0.0000000000
      7810      2604  TIP3      OH2            29.6802028566       18.5923687879       10.5304585013  W2        4255            0.0000000000
      7811      2604  TIP3      H1             28.9941328566       18.9446187879       11.0974285013  W2        4255            0.0000000000
      7812      2604  TIP3      H2             30.2029928566       19.3553287879       10.2838885013  W2        4255            0.0000000000
      7813      2605  TIP3      OH2            28.6120128566       13.8705587879        8.5431785013  W2        4256            0.0000000000
      7814      2605  TIP3      H1             28.5672728566       14.8098687879        8.7218785013  W2        4256            0.0000000000
      7815      2605  TIP3      H2             27.7243328566       13.6350487879        8.2733885013  W2        4256            0.0000000000
      7816      2606  TIP3      OH2            27.5733128566       20.9018287879        8.8458385013  W2        4263            0.0000000000
      7817      2606  TIP3      H1             28.4872328566       20.9807187879        9.1192285013  W2        4263            0.0000000000
      7818      2606  TIP3      H2             27.5806228566       20.2147887879        8.1793985013  W2        4263            0.0000000000
      7819      2607  TIP3      OH2            27.8849128566        8.3335587879       10.3134285013  W2        4276            0.0000000000
      7820      2607  TIP3      H1             28.3239828566        8.9446087879        9.7217785013  W2        4276            0.0000000000
      7821      2607  TIP3      H2             27.2511528566        8.8719687879       10.7874285013  W2        4276            0.0000000000
      7822      2608  TIP3      OH2            29.7458228566       10.2497087879        8.7558385013  W2        4278            0.0000000000
      7823      2608  TIP3      H1             30.2371628566        9.6199487879        8.2283885013  W2        4278            0.0000000000
      7824      2608  TIP3      H2             30.3694528566       10.5456487879        9.4189585013  W2        4278            0.0000000000
      7825      2609  TIP3      OH2            29.6039828566       25.2018587879        8.2361485013  W2        4280            0.0000000000
      7826      2609  TIP3      H1             29.3364428566       25.4881487879        9.1094585013  W2        4280            0.0000000000
      7827      2609  TIP3      H2             30.3752428566       24.6557787879        8.3883985013  W2        4280            0.0000000000
      7828      2610  TIP3      OH2           -13.7443571434       26.9136387879       10.3702785013  W2        4286            0.0000000000
      7829      2610  TIP3      H1            -14.6442871434       27.0525387879       10.6653385013  W2        4286            0.0000000000
      7830      2610  TIP3      H2            -13.4925171434       27.7450987879        9.9684485013  W2        4286            0.0000000000
      7831      2611  TIP3      OH2           -20.3931371434       30.0722487879        8.8574285013  W2        4289            0.0000000000
      7832      2611  TIP3      H1            -20.6466571434       30.0914087879        9.7802385013  W2        4289            0.0000000000
      7833      2611  TIP3      H2            -20.6499271434       29.2007887879        8.5560485013  W2        4289            0.0000000000
      7834      2612  TIP3      OH2           -24.5304371434       29.6350387879       10.3667885013  W2        4295            0.0000000000
      7835      2612  TIP3      H1            -24.6139571434       30.5233487879       10.7134285013  W2        4295            0.0000000000
      7836      2612  TIP3      H2            -23.6404071434       29.3697087879       10.5984685013  W2        4295            0.0000000000
      7837      2613  TIP3      OH2           -12.2404171434       29.1420187879        9.2076985013  W2        4306            0.0000000000
      7838      2613  TIP3      H1            -11.8281571434       28.4205887879        8.7324985013  W2        4306            0.0000000000
      7839      2613  TIP3      H2            -11.5587671434       29.8114787879        9.2661285013  W2        4306            0.0000000000
      7840      2614  TIP3      OH2           -28.6830871434       27.1895587879       10.3134285013  W2        4314            0.0000000000
      7841      2614  TIP3      H1            -28.2440171434       27.8006087879        9.7217785013  W2        4314            0.0000000000
      7842      2614  TIP3      H2            -29.3168471434       27.7279687879       10.7874285013  W2        4314            0.0000000000
      7843      2615  TIP3      OH2           -26.8221771434       29.1057087879        8.7558385013  W2        4318            0.0000000000
      7844      2615  TIP3      H1            -26.3308371434       28.4759487879        8.2283885013  W2        4318            0.0000000000
      7845      2615  TIP3      H2            -26.1985471434       29.4016487879        9.4189585013  W2        4318            0.0000000000
      7846      2616  TIP3      OH2             5.1116428566       26.9136387879       10.3702785013  W2        4328            0.0000000000
      7847      2616  TIP3      H1              4.2117128566       27.0525387879       10.6653385013  W2        4328            0.0000000000
      7848      2616  TIP3      H2              5.3634828566       27.7450987879        9.9684485013  W2        4328            0.0000000000
      7849      2617  TIP3      OH2            -1.5371371434       30.0722487879        8.8574285013  W2        4331            0.0000000000
      7850      2617  TIP3      H1             -1.7906571434       30.0914087879        9.7802385013  W2        4331            0.0000000000
      7851      2617  TIP3      H2             -1.7939271434       29.2007887879        8.5560485013  W2        4331            0.0000000000
      7852      2618  TIP3      OH2            -5.6744371434       29.6350387879       10.3667885013  W2        4337            0.0000000000
      7853      2618  TIP3      H1             -5.7579571434       30.5233487879       10.7134285013  W2        4337            0.0000000000
      7854      2618  TIP3      H2             -4.7844071434       29.3697087879       10.5984685013  W2        4337            0.0000000000
      7855      2619  TIP3      OH2             6.6155828566       29.1420187879        9.2076985013  W2        4348            0.0000000000
      7856      2619  TIP3      H1              7.0278428566       28.4205887879        8.7324985013  W2        4348            0.0000000000
      7857      2619  TIP3      H2              7.2972328566       29.8114787879        9.2661285013  W2        4348            0.0000000000
      7858      2620  TIP3      OH2            -9.8270871434       27.1895587879       10.3134285013  W2        4356            0.0000000000
      7859      2620  TIP3      H1             -9.3880171434       27.8006087879        9.7217785013  W2        4356            0.0000000000
      7860      2620  TIP3      H2            -10.4608471434       27.7279687879       10.7874285013  W2        4356            0.0000000000
      7861      2621  TIP3      OH2            -7.9661771434       29.1057087879        8.7558385013  W2        4360            0.0000000000
      7862      2621  TIP3      H1             -7.4748371434       28.4759487879        8.2283885013  W2        4360            0.0000000000
      7863      2621  TIP3      H2             -7.3425471434       29.4016487879        9.4189585013  W2        4360            0.0000000000
      7864      2622  TIP3      OH2            23.9676428566       26.9136387879       10.3702785013  W2        4370            0.0000000000
      7865      2622  TIP3      H1             23.0677128566       27.0525387879       10.6653385013  W2        4370            0.0000000000
      7866      2622  TIP3      H2             24.2194828566       27.7450987879        9.9684485013  W2        4370            0.0000000000
      7867      2623  TIP3      OH2            17.3188628566       30.0722487879        8.8574285013  W2        4373            0.0000000000
      7868      2623  TIP3      H1             17.0653428566       30.0914087879        9.7802385013  W2        4373            0.0000000000
      7869      2623  TIP3      H2             17.0620728566       29.2007887879        8.5560485013  W2        4373            0.0000000000
      7870      2624  TIP3      OH2            13.1815628566       29.6350387879       10.3667885013  W2        4379            0.0000000000
      7871      2624  TIP3      H1             13.0980428566       30.5233487879       10.7134285013  W2        4379            0.0000000000
      7872      2624  TIP3      H2             14.0715928566       29.3697087879       10.5984685013  W2        4379            0.0000000000
      7873      2625  TIP3      OH2            25.4715828566       29.1420187879        9.2076985013  W2        4390            0.0000000000
      7874      2625  TIP3      H1             25.8838428566       28.4205887879        8.7324985013  W2        4390            0.0000000000
      7875      2625  TIP3      H2             26.1532328566       29.8114787879        9.2661285013  W2        4390            0.0000000000
      7876      2626  TIP3      OH2             9.0289128566       27.1895587879       10.3134285013  W2        4398            0.0000000000
      7877      2626  TIP3      H1              9.4679828566       27.8006087879        9.7217785013  W2        4398            0.0000000000
      7878      2626  TIP3      H2              8.3951528566       27.7279687879       10.7874285013  W2        4398            0.0000000000
      7879      2627  TIP3      OH2            10.8898228566       29.1057087879        8.7558385013  W2        4402            0.0000000000
      7880      2627  TIP3      H1             11.3811628566       28.4759487879        8.2283885013  W2        4402            0.0000000000
      7881      2627  TIP3      H2             11.5134528566       29.4016487879        9.4189585013  W2        4402            0.0000000000
      7882      2628  TIP3      OH2            27.8849128566       27.1895587879       10.3134285013  W2        4412            0.0000000000
      7883      2628  TIP3      H1             28.3239828566       27.8006087879        9.7217785013  W2        4412            0.0000000000
      7884      2628  TIP3      H2             27.2511528566       27.7279687879       10.7874285013  W2        4412            0.0000000000
      7885      2629  TIP3      OH2            29.7458228566       29.1057087879        8.7558385013  W2        4413            0.0000000000
      7886      2629  TIP3      H1             30.2371628566       28.4759487879        8.2283885013  W2        4413            0.0000000000
      7887      2629  TIP3      H2             30.3694528566       29.4016487879        9.4189585013  W2        4413            0.0000000000
