* GENERATED BY CHARMM-GUI (HTTP://WWW.CHARMM-GUI.ORG) V3.7 ON DEC, 01. 2025. JOB
* READ PDB, MANIPULATE STRUCTURE IF NEEDED, AND GENERATE TOPOLOGY FILE
*  DATE:    12/ 1/25      7:59:13      CREATED BY USER: charmm-gui
*
       872  EXT
         1         1  GLY       N              42.3750000000      -12.1800000000       24.7800000000  PROA      1              35.3100000000
         2         1  GLY       HT1            42.6333352798      -13.0647747054       25.2617017789  PROA      1               0.0000000000
         3         1  GLY       HT2            41.7738357234      -12.3950003596       23.9590395905  PROA      1               0.0000000000
         4         1  GLY       HT3            41.8547974392      -11.5658268321       25.4386199600  PROA      1               0.0000000000
         5         1  GLY       CA             43.6030000000      -11.4880000000       24.3250000000  PROA      1              35.5700000000
         6         1  GLY       HA1            44.1212723409      -12.1469845443       23.6442326673  PROA      1               0.0000000000
         7         1  GLY       HA2            44.2124136180      -11.2895775086       25.1942264189  PROA      1               0.0000000000
         8         1  GLY       C              43.2880000000      -10.1710000000       23.6150000000  PROA      1              34.6400000000
         9         1  GLY       O              42.1110000000       -9.8960000000       23.2770000000  PROA      1              35.8200000000
        10         2  ILE       N              44.3230000000       -9.3910000000       23.2990000000  PROA      2              32.2300000000
        11         2  ILE       HN             45.2446980942       -9.5992789870       23.6156494837  PROA      2               0.0000000000
        12         2  ILE       CA             44.2000000000       -8.1830000000       22.4750000000  PROA      2              27.5500000000
        13         2  ILE       HA             43.3970374565       -7.5917613992       22.8890505619  PROA      2               0.0000000000
        14         2  ILE       CB             45.5250000000       -7.3200000000       22.4250000000  PROA      2              30.1000000000
        15         2  ILE       HB             46.3692505321       -8.0048024445       22.2008287692  PROA      2               0.0000000000
        16         2  ILE       CG2            45.5550000000       -6.1730000000       21.3860000000  PROA      2              30.5400000000
        17         2  ILE       HG21           44.7352384958       -5.4514313756       21.5900852677  PROA      2               0.0000000000
        18         2  ILE       HG22           45.4181906599       -6.5853339113       20.3634942295  PROA      2               0.0000000000
        19         2  ILE       HG23           46.5247516362       -5.6342027704       21.4454424951  PROA      2               0.0000000000
        20         2  ILE       CG1            45.9240000000       -6.8370000000       23.8200000000  PROA      2              29.6400000000
        21         2  ILE       HG11           46.6468010707       -6.0065652457       23.6847878295  PROA      2               0.0000000000
        22         2  ILE       HG12           46.4332448861       -7.6824842910       24.3261339345  PROA      2               0.0000000000
        23         2  ILE       CD             44.8370000000       -6.3380000000       24.7620000000  PROA      2              32.4400000000
        24         2  ILE       HD1            44.0976050137       -7.1448615023       24.9532866183  PROA      2               0.0000000000
        25         2  ILE       HD2            44.3087371228       -5.4736963022       24.3057417932  PROA      2               0.0000000000
        26         2  ILE       HD3            45.2870865110       -6.0324277359       25.7306598085  PROA      2               0.0000000000
        27         2  ILE       C              43.7500000000       -8.6290000000       21.1190000000  PROA      2              24.9200000000
        28         2  ILE       O              43.0680000000       -7.9040000000       20.4090000000  PROA      2              23.7300000000
        29         3  GLY       N              44.1610000000       -9.8670000000       20.7490000000  PROA      3              22.6900000000
        30         3  GLY       HN             44.5665332900      -10.5284280285       21.3749540793  PROA      3               0.0000000000
        31         3  GLY       CA             43.9990000000      -10.2640000000       19.3290000000  PROA      3              21.0500000000
        32         3  GLY       HA1            44.4979759001      -11.2028889073       19.1450240810  PROA      3               0.0000000000
        33         3  GLY       HA2            44.3927760373       -9.4970455228       18.6801103867  PROA      3               0.0000000000
        34         3  GLY       C              42.4330000000      -10.4050000000       19.1660000000  PROA      3              22.0800000000
        35         3  GLY       O              41.9120000000      -10.0610000000       18.0960000000  PROA      3              22.8600000000
        36         4  ALA       N              41.8620000000      -10.9610000000       20.1910000000  PROA      4              21.6000000000
        37         4  ALA       HN             42.3403007513      -11.2035348216       21.0313176481  PROA      4               0.0000000000
        38         4  ALA       CA             40.3780000000      -11.2600000000       20.1060000000  PROA      4              21.8000000000
        39         4  ALA       HA             40.1748517799      -11.8147285500       19.2022882907  PROA      4               0.0000000000
        40         4  ALA       CB             40.0610000000      -12.0800000000       21.3500000000  PROA      4              22.9700000000
        41         4  ALA       HB1            40.3020605935      -11.4960291566       22.2638866693  PROA      4               0.0000000000
        42         4  ALA       HB2            40.6671904600      -13.0110062202       21.3538268518  PROA      4               0.0000000000
        43         4  ALA       HB3            38.9803496148      -12.3371354113       21.3681721214  PROA      4               0.0000000000
        44         4  ALA       C              39.5840000000       -9.9500000000       20.0870000000  PROA      4              21.6700000000
        45         4  ALA       O              38.6760000000       -9.7470000000       19.2780000000  PROA      4              22.2100000000
        46         5  VAL       N              39.9360000000       -9.0010000000       20.9560000000  PROA      5              22.1300000000
        47         5  VAL       HN             40.6670305688       -9.1799126555       21.6070333535  PROA      5               0.0000000000
        48         5  VAL       CA             39.3550000000       -7.6580000000       21.0830000000  PROA      5              19.3400000000
        49         5  VAL       HA             38.2812944043       -7.7679115365       21.1154171604  PROA      5               0.0000000000
        50         5  VAL       CB             39.8430000000       -6.9330000000       22.3380000000  PROA      5              20.4000000000
        51         5  VAL       HB             40.9510797305       -6.8582060670       22.3130012048  PROA      5               0.0000000000
        52         5  VAL       CG1            39.2370000000       -5.5190000000       22.4130000000  PROA      5              23.0600000000
        53         5  VAL       HG11           38.1281887914       -5.5800985585       22.4465510025  PROA      5               0.0000000000
        54         5  VAL       HG12           39.5329658657       -4.9327326220       21.5169258577  PROA      5               0.0000000000
        55         5  VAL       HG13           39.5917737256       -5.0037550338       23.3311025700  PROA      5               0.0000000000
        56         5  VAL       CG2            39.7450000000       -7.5870000000       23.6530000000  PROA      5              21.6700000000
        57         5  VAL       HG21           40.1743825818       -8.6104681765       23.6033563682  PROA      5               0.0000000000
        58         5  VAL       HG22           38.6796789168       -7.6637507835       23.9587031365  PROA      5               0.0000000000
        59         5  VAL       HG23           40.3100452203       -7.0016185905       24.4095094878  PROA      5               0.0000000000
        60         5  VAL       C              39.5360000000       -6.8960000000       19.7950000000  PROA      5              18.8100000000
        61         5  VAL       O              38.6260000000       -6.3140000000       19.1260000000  PROA      5              17.2200000000
        62         6  LEU       N              40.7520000000       -7.0210000000       19.2220000000  PROA      6              16.0500000000
        63         6  LEU       HN             41.4895195929       -7.5311633909       19.6572500558  PROA      6               0.0000000000
        64         6  LEU       CA             41.0620000000       -6.4320000000       17.9570000000  PROA      6              17.5900000000
        65         6  LEU       HA             40.6786369808       -5.4233223447       17.9237413388  PROA      6               0.0000000000
        66         6  LEU       CB             42.6270000000       -6.4610000000       17.8800000000  PROA      6              24.5800000000
        67         6  LEU       HB1            42.9813319879       -7.4944631938       18.0805317415  PROA      6               0.0000000000
        68         6  LEU       HB2            43.0413522124       -5.7823511654       18.6556019039  PROA      6               0.0000000000
        69         6  LEU       CG             43.1250000000       -6.0230000000       16.5240000000  PROA      6              23.9100000000
        70         6  LEU       HG             42.7094051308       -6.7002830027       15.7478530738  PROA      6               0.0000000000
        71         6  LEU       CD1            42.7060000000       -4.5840000000       16.2100000000  PROA      6              27.4400000000
        72         6  LEU       HD11           42.9654798352       -3.9167657935       17.0595820907  PROA      6               0.0000000000
        73         6  LEU       HD12           41.6083896095       -4.5372661481       16.0447078999  PROA      6               0.0000000000
        74         6  LEU       HD13           43.2366270565       -4.2251645318       15.3022962299  PROA      6               0.0000000000
        75         6  LEU       CD2            44.6690000000       -6.1520000000       16.6380000000  PROA      6              29.3100000000
        76         6  LEU       HD21           44.9486513748       -7.2031846292       16.8641127679  PROA      6               0.0000000000
        77         6  LEU       HD22           45.0433758109       -5.5013654257       17.4570064125  PROA      6               0.0000000000
        78         6  LEU       HD23           45.1449850581       -5.8568914424       15.6785192736  PROA      6               0.0000000000
        79         6  LEU       C              40.2300000000       -6.9350000000       16.8700000000  PROA      6              20.0100000000
        80         6  LEU       O              39.6490000000       -6.1210000000       16.0290000000  PROA      6              21.9000000000
        81         7  LYS       N              39.9810000000       -8.2290000000       16.7210000000  PROA      7              19.8300000000
        82         7  LYS       HN             40.3696766245       -8.9395868460       17.3022007219  PROA      7               0.0000000000
        83         7  LYS       CA             39.0790000000       -8.6460000000       15.6360000000  PROA      7              22.5500000000
        84         7  LYS       HA             39.5201122229       -8.3268189636       14.7035251559  PROA      7               0.0000000000
        85         7  LYS       CB             38.8540000000      -10.1760000000       15.6160000000  PROA      7              27.6200000000
        86         7  LYS       HB1            37.9903710642      -10.3874779084       14.9514030414  PROA      7               0.0000000000
        87         7  LYS       HB2            38.6031097367      -10.4997609549       16.6477460355  PROA      7               0.0000000000
        88         7  LYS       CG             40.0110000000      -10.9930000000       15.1440000000  PROA      7              40.1500000000
        89         7  LYS       HG1            40.9169687045      -10.7314729229       15.7313977779  PROA      7               0.0000000000
        90         7  LYS       HG2            40.2052399720      -10.7801791321       14.0710647892  PROA      7               0.0000000000
        91         7  LYS       CD             39.6910000000      -12.4870000000       15.3250000000  PROA      7              47.8400000000
        92         7  LYS       HD1            38.6366062672      -12.6652651425       15.0251354528  PROA      7               0.0000000000
        93         7  LYS       HD2            39.8092605891      -12.7501757571       16.3974720535  PROA      7               0.0000000000
        94         7  LYS       CE             40.5990000000      -13.3940000000       14.4930000000  PROA      7              53.1100000000
        95         7  LYS       HE1            41.5748790126      -13.5303019625       15.0060380875  PROA      7               0.0000000000
        96         7  LYS       HE2            40.7557258211      -12.9548150177       13.4846946297  PROA      7               0.0000000000
        97         7  LYS       NZ             39.9660000000      -14.7550000000       14.3190000000  PROA      7              55.4700000000
        98         7  LYS       HZ1            39.0520468856      -14.6532559214       13.8332656619  PROA      7               0.0000000000
        99         7  LYS       HZ2            39.8162804776      -15.1895264410       15.2519364784  PROA      7               0.0000000000
       100         7  LYS       HZ3            40.5943431221      -15.3596785162       13.7523003892  PROA      7               0.0000000000
       101         7  LYS       C              37.6480000000       -8.0630000000       15.7840000000  PROA      7              19.0400000000
       102         7  LYS       O              37.0310000000       -7.8390000000       14.7310000000  PROA      7              21.1800000000
       103         8  VAL       N              37.1110000000       -7.9880000000       16.9810000000  PROA      8              19.6900000000
       104         8  VAL       HN             37.5714367779       -8.3466088372       17.7891292532  PROA      8               0.0000000000
       105         8  VAL       CA             35.7920000000       -7.3690000000       17.2110000000  PROA      8              20.5200000000
       106         8  VAL       HA             35.1455514095       -7.7480004512       16.4348241796  PROA      8               0.0000000000
       107         8  VAL       CB             35.1130000000       -7.6000000000       18.5620000000  PROA      8              23.0900000000
       108         8  VAL       HB             34.1735489457       -7.0086665429       18.5868920732  PROA      8               0.0000000000
       109         8  VAL       CG1            34.7740000000       -9.0450000000       18.8510000000  PROA      8              24.2200000000
       110         8  VAL       HG11           35.7034729749       -9.6269927254       19.0290040914  PROA      8               0.0000000000
       111         8  VAL       HG12           34.2383850314       -9.4883471120       17.9845047349  PROA      8               0.0000000000
       112         8  VAL       HG13           34.1358855210       -9.1095744338       19.7581351360  PROA      8               0.0000000000
       113         8  VAL       CG2            35.7690000000       -6.9700000000       19.7260000000  PROA      8              27.9500000000
       114         8  VAL       HG21           35.9728760948       -5.8983230013       19.5156100087  PROA      8               0.0000000000
       115         8  VAL       HG22           36.7331883181       -7.4794598576       19.9382395851  PROA      8               0.0000000000
       116         8  VAL       HG23           35.1067104241       -7.0370889054       20.6154524704  PROA      8               0.0000000000
       117         8  VAL       C              35.7760000000       -5.8810000000       16.8850000000  PROA      8              20.3100000000
       118         8  VAL       O              34.7750000000       -5.4020000000       16.2570000000  PROA      8              20.1200000000
       119         9  LEU       N              36.8600000000       -5.1760000000       17.2160000000  PROA      9              19.5500000000
       120         9  LEU       HN             37.6241304835       -5.5218201565       17.7538936434  PROA      9               0.0000000000
       121         9  LEU       CA             36.8990000000       -3.7590000000       16.7250000000  PROA      9              16.8300000000
       122         9  LEU       HA             36.0578381911       -3.2315480017       17.1497718927  PROA      9               0.0000000000
       123         9  LEU       CB             38.2270000000       -3.0880000000       17.1470000000  PROA      9              16.5700000000
       124         9  LEU       HB1            38.2175570505       -2.0352410608       16.7938855689  PROA      9               0.0000000000
       125         9  LEU       HB2            39.0650752662       -3.6252251529       16.6549640887  PROA      9               0.0000000000
       126         9  LEU       CG             38.4620000000       -3.0910000000       18.6150000000  PROA      9              18.6900000000
       127         9  LEU       HG             38.5679391029       -4.1333177663       18.9846821846  PROA      9               0.0000000000
       128         9  LEU       CD1            39.7830000000       -2.2880000000       18.8730000000  PROA      9              24.0900000000
       129         9  LEU       HD11           39.6754553437       -1.2465008404       18.5014698566  PROA      9               0.0000000000
       130         9  LEU       HD12           40.6290498495       -2.7698542083       18.3379576887  PROA      9               0.0000000000
       131         9  LEU       HD13           39.9991322877       -2.2554685792       19.9622578398  PROA      9               0.0000000000
       132         9  LEU       CD2            37.2650000000       -2.5350000000       19.3510000000  PROA      9              22.1700000000
       133         9  LEU       HD21           36.4128898638       -3.2448736497       19.2853591801  PROA      9               0.0000000000
       134         9  LEU       HD22           36.9574124782       -1.5687141240       18.8971986966  PROA      9               0.0000000000
       135         9  LEU       HD23           37.5173154570       -2.3818034513       20.4220377343  PROA      9               0.0000000000
       136         9  LEU       C              36.7780000000       -3.6440000000       15.2540000000  PROA      9              19.1100000000
       137         9  LEU       O              36.3280000000       -2.5510000000       14.6940000000  PROA      9              19.6900000000
       138        10  THR       N              37.3200000000       -4.6270000000       14.5300000000  PROA      10             19.3900000000
       139        10  THR       HN             37.7184786171       -5.4490450228       14.9292371085  PROA      10              0.0000000000
       140        10  THR       CA             37.3380000000       -4.5080000000       13.0840000000  PROA      10             19.4100000000
       141        10  THR       HA             37.2946838701       -3.4588894569       12.8316548140  PROA      10              0.0000000000
       142        10  THR       CB             38.6870000000       -5.1790000000       12.4860000000  PROA      10             24.0700000000
       143        10  THR       HB             38.9622673184       -4.7472990876       11.5010928112  PROA      10              0.0000000000
       144        10  THR       OG1            38.2850000000       -6.5380000000       12.3540000000  PROA      10             31.2000000000
       145        10  THR       HG1            37.8999987367       -6.7832830194       13.1985177723  PROA      10              0.0000000000
       146        10  THR       CG2            39.8770000000       -5.0490000000       13.4510000000  PROA      10             20.7500000000
       147        10  THR       HG21           40.1385555164       -6.0438107904       13.8708347331  PROA      10              0.0000000000
       148        10  THR       HG22           39.6120294744       -4.3690373889       14.2886727098  PROA      10              0.0000000000
       149        10  THR       HG23           40.7608564113       -4.6489513962       12.9096931928  PROA      10              0.0000000000
       150        10  THR       C              36.0720000000       -5.0220000000       12.4580000000  PROA      10             21.0800000000
       151        10  THR       O              35.6940000000       -4.5540000000       11.3330000000  PROA      10             21.4800000000
       152        11  THR       N              35.3150000000       -5.8700000000       13.1130000000  PROA      11             21.1200000000
       153        11  THR       HN             35.4650057263       -6.1720957609       14.0503049748  PROA      11              0.0000000000
       154        11  THR       CA             34.1320000000       -6.4050000000       12.3430000000  PROA      11             24.1400000000
       155        11  THR       HA             33.9810998940       -5.7925332032       11.4665194209  PROA      11              0.0000000000
       156        11  THR       CB             34.4620000000       -7.9250000000       11.9350000000  PROA      11             27.7800000000
       157        11  THR       HB             33.6038992663       -8.3943937663       11.4088792150  PROA      11              0.0000000000
       158        11  THR       OG1            34.7020000000       -8.5910000000       13.1990000000  PROA      11             31.2200000000
       159        11  THR       HG1            35.6015611960       -8.3677611042       13.4491080766  PROA      11              0.0000000000
       160        11  THR       CG2            35.6950000000       -7.9590000000       11.0470000000  PROA      11             30.3100000000
       161        11  THR       HG21           36.6139422761       -7.8809117440       11.6664903691  PROA      11              0.0000000000
       162        11  THR       HG22           35.6727866958       -7.1054141763       10.3362596034  PROA      11              0.0000000000
       163        11  THR       HG23           35.7280931982       -8.9152040260       10.4823471849  PROA      11              0.0000000000
       164        11  THR       C              32.8740000000       -6.2990000000       13.1400000000  PROA      11             24.1300000000
       165        11  THR       O              31.8230000000       -5.8890000000       12.6300000000  PROA      11             27.7800000000
       166        12  GLY       N              32.9180000000       -6.6060000000       14.4200000000  PROA      12             23.0000000000
       167        12  GLY       HN             33.7433586656       -6.8370187115       14.9278288283  PROA      12              0.0000000000
       168        12  GLY       CA             31.5840000000       -6.5950000000       15.1400000000  PROA      12             24.1700000000
       169        12  GLY       HA1            31.6484003692       -7.2426510396       16.0017287306  PROA      12              0.0000000000
       170        12  GLY       HA2            30.8206064623       -6.9496839026       14.4635346885  PROA      12              0.0000000000
       171        12  GLY       C              31.2640000000       -5.1680000000       15.5840000000  PROA      12             24.4500000000
       172        12  GLY       O              30.0600000000       -4.9140000000       15.6030000000  PROA      12             23.7900000000
       173        13  LEU       N              32.1950000000       -4.2760000000       15.9480000000  PROA      13             22.0500000000
       174        13  LEU       HN             33.1600281684       -4.5227566246       15.9470571442  PROA      13              0.0000000000
       175        13  LEU       CA             31.9230000000       -2.9190000000       16.3640000000  PROA      13             23.2400000000
       176        13  LEU       HA             31.1143437389       -2.9627739582       17.0778944401  PROA      13              0.0000000000
       177        13  LEU       CB             33.1460000000       -2.1830000000       17.0080000000  PROA      13             25.5500000000
       178        13  LEU       HB1            33.4797891294       -1.3974995645       16.2985898760  PROA      13              0.0000000000
       179        13  LEU       HB2            33.9603628241       -2.9264946288       17.1333705263  PROA      13              0.0000000000
       180        13  LEU       CG             32.9130000000       -1.5230000000       18.3510000000  PROA      13             27.0100000000
       181        13  LEU       HG             32.8614037813       -2.3162711094       19.1261883673  PROA      13              0.0000000000
       182        13  LEU       CD1            33.9990000000       -0.5170000000       18.7600000000  PROA      13             27.5300000000
       183        13  LEU       HD11           33.9432898237        0.3873929791       18.1171230945  PROA      13              0.0000000000
       184        13  LEU       HD12           35.0037425611       -0.9757657585       18.6404990987  PROA      13              0.0000000000
       185        13  LEU       HD13           33.8512387970       -0.2101224176       19.8174719273  PROA      13              0.0000000000
       186        13  LEU       CD2            31.5870000000       -0.8420000000       18.5310000000  PROA      13             24.5400000000
       187        13  LEU       HD21           30.7614535046       -1.5754732186       18.4092994601  PROA      13              0.0000000000
       188        13  LEU       HD22           31.4661165173       -0.0423174142       17.7693248421  PROA      13              0.0000000000
       189        13  LEU       HD23           31.5231061092       -0.4017536135       19.5490151229  PROA      13              0.0000000000
       190        13  LEU       C              31.2510000000       -2.0040000000       15.3240000000  PROA      13             21.2400000000
       191        13  LEU       O              30.2320000000       -1.3080000000       15.6790000000  PROA      13             23.0200000000
       192        14  PRO       N              31.6890000000       -1.9790000000       14.1060000000  PROA      14             17.3800000000
       193        14  PRO       CD             33.0980000000       -2.3630000000       13.7690000000  PROA      14             17.9600000000
       194        14  PRO       HD1            33.2969046444       -3.4113026262       14.0745498206  PROA      14              0.0000000000
       195        14  PRO       HD2            33.8153733457       -1.6789613684       14.2683283286  PROA      14              0.0000000000
       196        14  PRO       CA             31.0260000000       -1.2780000000       13.0300000000  PROA      14             17.5200000000
       197        14  PRO       HA             30.9675669260       -0.2248626962       13.2525530257  PROA      14              0.0000000000
       198        14  PRO       CB             31.8450000000       -1.6140000000       11.8160000000  PROA      14             17.8000000000
       199        14  PRO       HB1            32.0485421629       -0.6967224233       11.2231432531  PROA      14              0.0000000000
       200        14  PRO       HB2            31.3028788025       -2.3421256211       11.1754967806  PROA      14              0.0000000000
       201        14  PRO       CG             33.1180000000       -2.2050000000       12.3030000000  PROA      14             18.0500000000
       202        14  PRO       HG1            33.2654013538       -3.1989128876       11.8293098971  PROA      14              0.0000000000
       203        14  PRO       HG2            33.9625417666       -1.5423297364       12.0173610200  PROA      14              0.0000000000
       204        14  PRO       C              29.5210000000       -1.6700000000       12.8570000000  PROA      14             18.9800000000
       205        14  PRO       O              28.6570000000       -0.8010000000       12.7440000000  PROA      14             16.7500000000
       206        15  ALA       N              29.2070000000       -2.9520000000       12.8680000000  PROA      15             16.3900000000
       207        15  ALA       HN             29.8973804831       -3.6630828772       12.9747821075  PROA      15              0.0000000000
       208        15  ALA       CA             27.8220000000       -3.4180000000       12.7240000000  PROA      15             17.1000000000
       209        15  ALA       HA             27.3872215286       -2.8964433561       11.8844063198  PROA      15              0.0000000000
       210        15  ALA       CB             27.7410000000       -4.9060000000       12.5020000000  PROA      15             19.5800000000
       211        15  ALA       HB1            28.1917192767       -5.4454789065       13.3623113640  PROA      15              0.0000000000
       212        15  ALA       HB2            28.2964373961       -5.1815845755       11.5801559018  PROA      15              0.0000000000
       213        15  ALA       HB3            26.6787146114       -5.2166850731       12.4056743072  PROA      15              0.0000000000
       214        15  ALA       C              27.0230000000       -3.0160000000       13.9510000000  PROA      15             16.9800000000
       215        15  ALA       O              25.8720000000       -2.5510000000       13.7690000000  PROA      15             16.7800000000
       216        16  LEU       N              27.5700000000       -3.1170000000       15.1270000000  PROA      16             15.9700000000
       217        16  LEU       HN             28.4667370880       -3.5362663153       15.2399448749  PROA      16              0.0000000000
       218        16  LEU       CA             26.9580000000       -2.6490000000       16.3510000000  PROA      16             18.2000000000
       219        16  LEU       HA             25.9794278594       -3.0986622749       16.4308765665  PROA      16              0.0000000000
       220        16  LEU       CB             27.8110000000       -3.0270000000       17.5420000000  PROA      16             19.7000000000
       221        16  LEU       HB1            28.8295881178       -2.6285691564       17.3568613688  PROA      16              0.0000000000
       222        16  LEU       HB2            27.8556606930       -4.1348684710       17.5763231256  PROA      16              0.0000000000
       223        16  LEU       CG             27.3840000000       -2.5500000000       18.9210000000  PROA      16             22.2300000000
       224        16  LEU       HG             27.2641062184       -1.4454893579       18.9226442454  PROA      16              0.0000000000
       225        16  LEU       CD1            26.0310000000       -3.2340000000       19.2570000000  PROA      16             27.8000000000
       226        16  LEU       HD11           26.1507952567       -4.3385214799       19.2554518206  PROA      16              0.0000000000
       227        16  LEU       HD12           25.2690771464       -2.9588067798       18.4967392832  PROA      16              0.0000000000
       228        16  LEU       HD13           25.6863656127       -2.9160254543       20.2641610736  PROA      16              0.0000000000
       229        16  LEU       CD2            28.4450000000       -2.9700000000       19.9330000000  PROA      16             21.9100000000
       230        16  LEU       HD21           29.4245870795       -2.5169356290       19.6694419809  PROA      16              0.0000000000
       231        16  LEU       HD22           28.5534056635       -4.0756651643       19.9303813804  PROA      16              0.0000000000
       232        16  LEU       HD23           28.1563740911       -2.6248076623       20.9487713500  PROA      16              0.0000000000
       233        16  LEU       C              26.6140000000       -1.1690000000       16.3440000000  PROA      16             20.2800000000
       234        16  LEU       O              25.5990000000       -0.7340000000       16.9330000000  PROA      16             18.3200000000
       235        17  ILE       N              27.5140000000       -0.3650000000       15.7910000000  PROA      17             20.9700000000
       236        17  ILE       HN             28.3816300845       -0.7241659336       15.4583016273  PROA      17              0.0000000000
       237        17  ILE       CA             27.3430000000        1.0560000000       15.6180000000  PROA      17             20.4100000000
       238        17  ILE       HA             27.0343322277        1.4456908509       16.5759002887  PROA      17              0.0000000000
       239        17  ILE       CB             28.5790000000        1.8470000000       15.1320000000  PROA      17             21.1000000000
       240        17  ILE       HB             29.0267911889        1.3054573683       14.2722276700  PROA      17              0.0000000000
       241        17  ILE       CG2            28.2680000000        3.2880000000       14.6910000000  PROA      17             22.0400000000
       242        17  ILE       HG21           27.8331806190        3.8609852094       15.5377237187  PROA      17              0.0000000000
       243        17  ILE       HG22           27.5352320854        3.2781029016       13.8560105800  PROA      17              0.0000000000
       244        17  ILE       HG23           29.2017236690        3.7930335014       14.3633487020  PROA      17              0.0000000000
       245        17  ILE       CG1            29.5860000000        1.8580000000       16.3520000000  PROA      17             25.6600000000
       246        17  ILE       HG11           29.8935206038        0.8103331245       16.5520495743  PROA      17              0.0000000000
       247        17  ILE       HG12           29.0460320585        2.2511904693       17.2385836187  PROA      17              0.0000000000
       248        17  ILE       CD             30.8560000000        2.6960000000       16.1610000000  PROA      17             27.0000000000
       249        17  ILE       HD1            30.6028914409        3.7777820267       16.1588311341  PROA      17              0.0000000000
       250        17  ILE       HD2            31.3345045272        2.4417487165       15.1911320693  PROA      17              0.0000000000
       251        17  ILE       HD3            31.5670289508        2.4997634257       16.9917726155  PROA      17              0.0000000000
       252        17  ILE       C              26.0810000000        1.3920000000       14.7580000000  PROA      17             18.1700000000
       253        17  ILE       O              25.3800000000        2.2400000000       15.2820000000  PROA      17             16.4600000000
       254        18  SER       N              25.9300000000        0.7590000000       13.6570000000  PROA      18             16.9700000000
       255        18  SER       HN             26.6424088429        0.1320405197       13.3593258489  PROA      18              0.0000000000
       256        18  SER       CA             24.8250000000        0.8270000000       12.7440000000  PROA      18             19.9800000000
       257        18  SER       HA             24.6659021543        1.8666866954       12.4996177548  PROA      18              0.0000000000
       258        18  SER       CB             25.0760000000        0.0390000000       11.4910000000  PROA      18             20.3900000000
       259        18  SER       HB1            25.3285224859       -1.0114023873       11.7501700175  PROA      18              0.0000000000
       260        18  SER       HB2            25.9162703192        0.4918448529       10.9225290605  PROA      18              0.0000000000
       261        18  SER       OG             23.9020000000        0.0460000000       10.6700000000  PROA      18             23.8700000000
       262        18  SER       HG1            23.9038786012        0.8901218938       10.2127750015  PROA      18              0.0000000000
       263        18  SER       C              23.4990000000        0.4050000000       13.4380000000  PROA      18             18.8900000000
       264        18  SER       O              22.5570000000        1.1650000000       13.3520000000  PROA      18             18.3700000000
       265        19  TRP       N              23.5120000000       -0.6610000000       14.1610000000  PROA      19             17.7100000000
       266        19  TRP       HN             24.2874969469       -1.2827891895       14.1089938624  PROA      19              0.0000000000
       267        19  TRP       CA             22.4920000000       -1.0850000000       15.0810000000  PROA      19             15.7200000000
       268        19  TRP       HA             21.5732556373       -1.1959616377       14.5245656464  PROA      19              0.0000000000
       269        19  TRP       CB             22.8540000000       -2.4100000000       15.7670000000  PROA      19             15.5900000000
       270        19  TRP       HB1            23.7698005813       -2.2456273836       16.3726401964  PROA      19              0.0000000000
       271        19  TRP       HB2            23.0672980264       -3.1601774595       14.9769070685  PROA      19              0.0000000000
       272        19  TRP       CG             21.8030000000       -2.9930000000       16.6780000000  PROA      19             17.9400000000
       273        19  TRP       CD1            20.9170000000       -3.9500000000       16.2100000000  PROA      19             18.0300000000
       274        19  TRP       HD1            20.9029720447       -4.3532551013       15.2082379616  PROA      19              0.0000000000
       275        19  TRP       NE1            20.0600000000       -4.3040000000       17.2220000000  PROA      19             21.2800000000
       276        19  TRP       HE1            19.3366972362       -4.9528355426       17.1334950946  PROA      19              0.0000000000
       277        19  TRP       CE2            20.3570000000       -3.6240000000       18.3720000000  PROA      19             20.4500000000
       278        19  TRP       CD2            21.4480000000       -2.7450000000       18.0410000000  PROA      19             16.0300000000
       279        19  TRP       CE3            21.8790000000       -1.8920000000       19.0480000000  PROA      19             14.4100000000
       280        19  TRP       HE3            22.6715800350       -1.1793519494       18.8745784551  PROA      19              0.0000000000
       281        19  TRP       CZ3            21.2920000000       -1.9500000000       20.2880000000  PROA      19             17.2400000000
       282        19  TRP       HZ3            21.6704490218       -1.3008399702       21.0630221996  PROA      19              0.0000000000
       283        19  TRP       CZ2            19.7840000000       -3.6900000000       19.6120000000  PROA      19             17.1500000000
       284        19  TRP       HZ2            19.0045603228       -4.4015948519       19.8411025012  PROA      19              0.0000000000
       285        19  TRP       CH2            20.2300000000       -2.8050000000       20.6010000000  PROA      19             15.1300000000
       286        19  TRP       HH2            19.7677913367       -2.7830839052       21.5766754347  PROA      19              0.0000000000
       287        19  TRP       C              22.0830000000        0.0040000000       16.0120000000  PROA      19             18.0200000000
       288        19  TRP       O              20.8200000000        0.2440000000       16.1600000000  PROA      19             16.9300000000
       289        20  ILE       N              22.9300000000        0.5940000000       16.8230000000  PROA      20             14.8200000000
       290        20  ILE       HN             23.8882862741        0.3248986435       16.8168314154  PROA      20              0.0000000000
       291        20  ILE       CA             22.6280000000        1.6330000000       17.7660000000  PROA      20             15.6700000000
       292        20  ILE       HA             21.9421890472        1.2211156560       18.4911297106  PROA      20              0.0000000000
       293        20  ILE       CB             23.9020000000        2.1920000000       18.4990000000  PROA      20             16.2500000000
       294        20  ILE       HB             24.6535222236        2.4828629706       17.7348140211  PROA      20              0.0000000000
       295        20  ILE       CG2            23.5990000000        3.4210000000       19.3900000000  PROA      20             14.5400000000
       296        20  ILE       HG21           22.7339981261        3.2074636183       20.0536979522  PROA      20              0.0000000000
       297        20  ILE       HG22           23.3501479148        4.2971355223       18.7538291998  PROA      20              0.0000000000
       298        20  ILE       HG23           24.4815991956        3.6564518668       20.0223252162  PROA      20              0.0000000000
       299        20  ILE       CG1            24.4810000000        0.9860000000       19.3630000000  PROA      20             15.5000000000
       300        20  ILE       HG11           24.3771363456        0.0300891563       18.8064399642  PROA      20              0.0000000000
       301        20  ILE       HG12           23.9303003505        0.9030066146       20.3243294270  PROA      20              0.0000000000
       302        20  ILE       CD             26.0330000000        1.3040000000       19.6370000000  PROA      20             18.1800000000
       303        20  ILE       HD1            26.1344230675        2.2609383872       20.1922506501  PROA      20              0.0000000000
       304        20  ILE       HD2            26.5765302309        1.3943654223       18.6722911946  PROA      20              0.0000000000
       305        20  ILE       HD3            26.4837986867        0.4912585736       20.2456756267  PROA      20              0.0000000000
       306        20  ILE       C              21.9170000000        2.8190000000       17.0800000000  PROA      20             17.5100000000
       307        20  ILE       O              20.9420000000        3.3650000000       17.6550000000  PROA      20             17.7000000000
       308        21  LYS       N              22.4640000000        3.1770000000       15.9570000000  PROA      21             16.6100000000
       309        21  LYS       HN             23.2900744641        2.7472611124       15.6007881563  PROA      21              0.0000000000
       310        21  LYS       CA             21.8880000000        4.2360000000       15.1570000000  PROA      21             19.8400000000
       311        21  LYS       HA             21.7716048192        5.0896698575       15.8072783214  PROA      21              0.0000000000
       312        21  LYS       CB             22.6990000000        4.6460000000       13.9350000000  PROA      21             16.7300000000
       313        21  LYS       HB1            22.0949188630        5.3008305731       13.2712543087  PROA      21              0.0000000000
       314        21  LYS       HB2            23.0159339982        3.7486768626       13.3617291477  PROA      21              0.0000000000
       315        21  LYS       CG             23.9440000000        5.4160000000       14.4710000000  PROA      21             22.1900000000
       316        21  LYS       HG1            24.4485670609        4.8139521801       15.2566306152  PROA      21              0.0000000000
       317        21  LYS       HG2            23.6256220876        6.3852169760       14.9109078520  PROA      21              0.0000000000
       318        21  LYS       CD             24.9190000000        5.6690000000       13.3000000000  PROA      21             25.8600000000
       319        21  LYS       HD1            24.4646041468        6.3632573569       12.5612101313  PROA      21              0.0000000000
       320        21  LYS       HD2            25.1667758006        4.7138707041       12.7894958182  PROA      21              0.0000000000
       321        21  LYS       CE             26.1730000000        6.2870000000       13.9080000000  PROA      21             32.9100000000
       322        21  LYS       HE1            26.6187110691        5.5869390141       14.6465274598  PROA      21              0.0000000000
       323        21  LYS       HE2            25.9186339792        7.2500100905       14.4000122386  PROA      21              0.0000000000
       324        21  LYS       NZ             27.1990000000        6.5640000000       12.8630000000  PROA      21             39.1100000000
       325        21  LYS       HZ1            26.8101042344        7.2260320396       12.1615203765  PROA      21              0.0000000000
       326        21  LYS       HZ2            27.4627193289        5.6751298467       12.3918719896  PROA      21              0.0000000000
       327        21  LYS       HZ3            28.0408809914        6.9837895624       13.3064103695  PROA      21              0.0000000000
       328        21  LYS       C              20.4360000000        3.9100000000       14.7520000000  PROA      21             21.0200000000
       329        21  LYS       O              19.6850000000        4.8990000000       14.9710000000  PROA      21             22.8000000000
       330        22  ARG       N              20.0750000000        2.7280000000       14.3510000000  PROA      22             19.1800000000
       331        22  ARG       HN             20.7662866425        2.0206397155       14.2450239964  PROA      22              0.0000000000
       332        22  ARG       CA             18.7400000000        2.2730000000       14.0200000000  PROA      22             20.3800000000
       333        22  ARG       HA             18.3225073539        2.9748492530       13.3135759003  PROA      22              0.0000000000
       334        22  ARG       CB             18.7330000000        0.8600000000       13.4180000000  PROA      22             22.7300000000
       335        22  ARG       HB1            17.6948980845        0.4658941811       13.3813122420  PROA      22              0.0000000000
       336        22  ARG       HB2            19.3538569734        0.1780864319       14.0375574868  PROA      22              0.0000000000
       337        22  ARG       CG             19.3090000000        0.9560000000       12.0040000000  PROA      22             22.2900000000
       338        22  ARG       HG1            20.3954046756        1.1782257533       12.0685245264  PROA      22              0.0000000000
       339        22  ARG       HG2            18.8046229404        1.7838023500       11.4616257101  PROA      22              0.0000000000
       340        22  ARG       CD             19.1170000000       -0.3000000000       11.2540000000  PROA      22             25.7800000000
       341        22  ARG       HD1            19.8011440171       -0.2967898417       10.3791722956  PROA      22              0.0000000000
       342        22  ARG       HD2            18.0610077293       -0.3499985436       10.9137540248  PROA      22              0.0000000000
       343        22  ARG       NE             19.3820000000       -1.5620000000       11.9910000000  PROA      22             28.9400000000
       344        22  ARG       HE             18.6712816102       -1.9976306929       12.5429957610  PROA      22              0.0000000000
       345        22  ARG       CZ             20.6240000000       -2.1040000000       11.8890000000  PROA      22             33.7700000000
       346        22  ARG       NH1            21.6640000000       -1.5540000000       11.2520000000  PROA      22             31.2100000000
       347        22  ARG       HH11           21.5612673213       -0.6686394381       10.7985877460  PROA      22              0.0000000000
       348        22  ARG       HH12           22.5440936210       -2.0282562174       11.2292786769  PROA      22              0.0000000000
       349        22  ARG       NH2            20.8700000000       -3.2710000000       12.4980000000  PROA      22             33.1100000000
       350        22  ARG       HH21           20.1462292332       -3.7270998383       13.0158115628  PROA      22              0.0000000000
       351        22  ARG       HH22           21.7774712625       -3.6863573911       12.4349591764  PROA      22              0.0000000000
       352        22  ARG       C              17.8070000000        2.3650000000       15.1770000000  PROA      22             22.4600000000
       353        22  ARG       O              16.6480000000        2.8990000000       15.0960000000  PROA      22             23.2400000000
       354        23  LYS       N              18.2570000000        1.9370000000       16.3230000000  PROA      23             20.4900000000
       355        23  LYS       HN             19.1842285440        1.5820041719       16.4040905761  PROA      23              0.0000000000
       356        23  LYS       CA             17.5000000000        1.9280000000       17.5500000000  PROA      23             22.6200000000
       357        23  LYS       HA             16.5353480629        1.4839246019       17.3539495830  PROA      23              0.0000000000
       358        23  LYS       CB             18.2570000000        1.1280000000       18.5890000000  PROA      23             24.1600000000
       359        23  LYS       HB1            17.9520936059        1.4689996417       19.6011747075  PROA      23              0.0000000000
       360        23  LYS       HB2            19.3456530424        1.3081343467       18.4619863250  PROA      23              0.0000000000
       361        23  LYS       CG             17.9790000000       -0.3880000000       18.4630000000  PROA      23             31.0300000000
       362        23  LYS       HG1            18.8903631788       -0.9797158206       18.6936884628  PROA      23              0.0000000000
       363        23  LYS       HG2            17.6336716309       -0.6449831939       17.4389709094  PROA      23              0.0000000000
       364        23  LYS       CD             16.8580000000       -0.6570000000       19.5140000000  PROA      23             38.5200000000
       365        23  LYS       HD1            16.0945670013        0.1470890060       19.4468892777  PROA      23              0.0000000000
       366        23  LYS       HD2            17.3023198050       -0.6463005470       20.5320168735  PROA      23              0.0000000000
       367        23  LYS       CE             16.1970000000       -1.9860000000       19.2780000000  PROA      23             44.0500000000
       368        23  LYS       HE1            16.9730387477       -2.7462189593       19.0458580338  PROA      23              0.0000000000
       369        23  LYS       HE2            15.4843890170       -1.8965425391       18.4305084979  PROA      23              0.0000000000
       370        23  LYS       NZ             15.4120000000       -2.4930000000       20.4770000000  PROA      23             48.3000000000
       371        23  LYS       HZ1            14.6638817776       -1.8111257593       20.7156768635  PROA      23              0.0000000000
       372        23  LYS       HZ2            16.0523113105       -2.6034579775       21.2890345417  PROA      23              0.0000000000
       373        23  LYS       HZ3            14.9829067718       -3.4120060439       20.2469858073  PROA      23              0.0000000000
       374        23  LYS       C              17.2160000000        3.3610000000       18.1000000000  PROA      23             25.4700000000
       375        23  LYS       O              16.2040000000        3.5540000000       18.8110000000  PROA      23             24.6200000000
       376        24  ARG       N              18.1550000000        4.2680000000       17.8440000000  PROA      24             23.9900000000
       377        24  ARG       HN             18.9809276408        4.0316763744       17.3388108799  PROA      24              0.0000000000
       378        24  ARG       CA             18.0590000000        5.6740000000       18.2760000000  PROA      24             27.1100000000
       379        24  ARG       HA             17.6974382499        5.6860418602       19.2934801599  PROA      24              0.0000000000
       380        24  ARG       CB             19.4460000000        6.3790000000       18.1880000000  PROA      24             22.2400000000
       381        24  ARG       HB1            19.3036930735        7.4552349476       17.9520217317  PROA      24              0.0000000000
       382        24  ARG       HB2            20.0519102739        5.9121006150       17.3823348270  PROA      24              0.0000000000
       383        24  ARG       CG             20.1820000000        6.2360000000       19.5420000000  PROA      24             20.0100000000
       384        24  ARG       HG1            20.2005361782        5.1659823501       19.8399439230  PROA      24              0.0000000000
       385        24  ARG       HG2            19.6395991231        6.8156527226       20.3190816895  PROA      24              0.0000000000
       386        24  ARG       CD             21.5770000000        6.7420000000       19.4330000000  PROA      24             25.0000000000
       387        24  ARG       HD1            22.1374458034        6.0958781323       18.7244129532  PROA      24              0.0000000000
       388        24  ARG       HD2            22.0494977006        6.7073894846       20.4375977326  PROA      24              0.0000000000
       389        24  ARG       NE             21.7150000000        8.1150000000       18.9500000000  PROA      24             24.2400000000
       390        24  ARG       HE             21.7868032300        8.2983471737       17.9695831731  PROA      24              0.0000000000
       391        24  ARG       CZ             21.7450000000        9.1360000000       19.8370000000  PROA      24             22.7200000000
       392        24  ARG       NH1            21.5080000000        8.8480000000       21.0860000000  PROA      24             24.1000000000
       393        24  ARG       HH11           21.6649363056        9.5345828051       21.7959120000  PROA      24              0.0000000000
       394        24  ARG       HH12           21.1692456062        7.9404736953       21.3342769964  PROA      24              0.0000000000
       395        24  ARG       NH2            22.1340000000       10.3750000000       19.5120000000  PROA      24             24.0900000000
       396        24  ARG       HH21           22.4202886963       10.5798231834       18.5760052105  PROA      24              0.0000000000
       397        24  ARG       HH22           22.1382958271       11.0957146689       20.2052185167  PROA      24              0.0000000000
       398        24  ARG       C              16.9960000000        6.3550000000       17.4410000000  PROA      24             28.3400000000
       399        24  ARG       O              16.2240000000        7.1660000000       18.0290000000  PROA      24             31.8200000000
       400        25  GLN       N              16.8890000000        6.0800000000       16.1920000000  PROA      25             29.9000000000
       401        25  GLN       HN             17.4914559830        5.4306717774       15.7344860642  PROA      25              0.0000000000
       402        25  GLN       CA             15.8360000000        6.7300000000       15.3390000000  PROA      25             37.5000000000
       403        25  GLN       HA             15.6987070496        7.7445418331       15.6825920146  PROA      25              0.0000000000
       404        25  GLN       CB             16.2830000000        6.7130000000       13.8740000000  PROA      25             40.8200000000
       405        25  GLN       HB1            15.5126808238        7.1896439711       13.2307868460  PROA      25              0.0000000000
       406        25  GLN       HB2            16.4397836695        5.6678706001       13.5313227636  PROA      25              0.0000000000
       407        25  GLN       CG             17.6070000000        7.5050000000       13.8000000000  PROA      25             46.9100000000
       408        25  GLN       HG1            18.2240842293        7.2544158037       14.6888129926  PROA      25              0.0000000000
       409        25  GLN       HG2            17.3753765681        8.5911885268       13.8109083066  PROA      25              0.0000000000
       410        25  GLN       CD             18.4130000000        7.2050000000       12.5640000000  PROA      25             50.8900000000
       411        25  GLN       OE1            19.5960000000        7.5590000000       12.4770000000  PROA      25             54.2300000000
       412        25  GLN       NE2            17.7570000000        6.5120000000       11.6240000000  PROA      25             51.6100000000
       413        25  GLN       HE21           18.2167150984        6.2690314691       10.7698171616  PROA      25              0.0000000000
       414        25  GLN       HE22           16.8075396560        6.2376004589       11.7764137364  PROA      25              0.0000000000
       415        25  GLN       C              14.4630000000        6.1620000000       15.5540000000  PROA      25             39.9200000000
       416        25  GLN       O              13.4350000000        6.7990000000       15.2270000000  PROA      25             42.3900000000
       417        26  GLN       N              14.3630000000        4.9450000000       16.0640000000  PROA      26             43.0600000000
       418        26  GLN       HN             15.1601529904        4.3500226313       16.1174748569  PROA      26              0.0000000000
       419        26  GLN       CA             13.1320000000        4.3600000000       16.5830000000  PROA      26             46.6600000000
       420        26  GLN       HA             12.3648208486        4.5697304419       15.8536216221  PROA      26              0.0000000000
       421        26  GLN       CB             13.1440000000        2.8740000000       16.8620000000  PROA      26             49.1400000000
       422        26  GLN       HB1            12.2366560344        2.6271292315       17.4520296428  PROA      26              0.0000000000
       423        26  GLN       HB2            14.0435730526        2.6452706839       17.4709371483  PROA      26              0.0000000000
       424        26  GLN       CG             13.1660000000        1.9720000000       15.6250000000  PROA      26             54.4900000000
       425        26  GLN       HG1            13.9371044585        2.3198457646       14.9048455821  PROA      26              0.0000000000
       426        26  GLN       HG2            12.1736478646        1.9741659331       15.1255466031  PROA      26              0.0000000000
       427        26  GLN       CD             13.5060000000        0.5510000000       16.1160000000  PROA      26             58.1000000000
       428        26  GLN       OE1            13.0830000000        0.1800000000       17.2390000000  PROA      26             59.2700000000
       429        26  GLN       NE2            14.3040000000       -0.1170000000       15.2900000000  PROA      26             57.6100000000
       430        26  GLN       HE21           14.6217043250        0.3130020679       14.4449188302  PROA      26              0.0000000000
       431        26  GLN       HE22           14.5869064769       -1.0497690049       15.5133963046  PROA      26              0.0000000000
       432        26  GLN       C              12.6180000000        5.0710000000       17.8370000000  PROA      26             48.0000000000
       433        26  GLN       O              11.4090000000        5.3440000000       17.5970000000  PROA      26             50.8500000000
       434        26  GLN       NT             13.5104939002        5.2360940501       18.8498171566  PROA      26              0.0000000000
       435        26  GLN       HT1            14.4469763051        4.8996392902       18.7508277641  PROA      26              0.0000000000
       436        26  GLN       HT2            13.2302570101        5.6939414939       19.6935250466  PROA      26              0.0000000000
       437        27  GLY       N              42.3750000000       12.1800000000       17.4310000000  P2PROA    1             -24.7800000000
       438        27  GLY       HT1            42.6333352798       13.0647747054       16.9492982211  P2PROA    1             -25.2617017789
       439        27  GLY       HT2            41.7738357234       12.3950003596       18.2519604095  P2PROA    1             -23.9590395905
       440        27  GLY       HT3            41.8547974392       11.5658268321       16.7723800400  P2PROA    1             -25.4386199600
       441        27  GLY       CA             43.6030000000       11.4880000000       17.8860000000  P2PROA    1             -24.3250000000
       442        27  GLY       HA1            44.1212723409       12.1469845443       18.5667673327  P2PROA    1             -23.6442326673
       443        27  GLY       HA2            44.2124136180       11.2895775086       17.0167735811  P2PROA    1             -25.1942264189
       444        27  GLY       C              43.2880000000       10.1710000000       18.5960000000  P2PROA    1             -23.6150000000
       445        27  GLY       O              42.1110000000        9.8960000000       18.9340000000  P2PROA    1             -23.2770000000
       446        28  ILE       N              44.3230000000        9.3910000000       18.9120000000  P2PROA    2             -23.2990000000
       447        28  ILE       HN             45.2446980942        9.5992789870       18.5953505163  P2PROA    2             -23.6156494837
       448        28  ILE       CA             44.2000000000        8.1830000000       19.7360000000  P2PROA    2             -22.4750000000
       449        28  ILE       HA             43.3970374565        7.5917613992       19.3219494381  P2PROA    2             -22.8890505619
       450        28  ILE       CB             45.5250000000        7.3200000000       19.7860000000  P2PROA    2             -22.4250000000
       451        28  ILE       HB             46.3692505321        8.0048024445       20.0101712308  P2PROA    2             -22.2008287692
       452        28  ILE       CG2            45.5550000000        6.1730000000       20.8250000000  P2PROA    2             -21.3860000000
       453        28  ILE       HG21           44.7352384958        5.4514313756       20.6209147323  P2PROA    2             -21.5900852677
       454        28  ILE       HG22           45.4181906599        6.5853339113       21.8475057705  P2PROA    2             -20.3634942295
       455        28  ILE       HG23           46.5247516362        5.6342027704       20.7655575049  P2PROA    2             -21.4454424951
       456        28  ILE       CG1            45.9240000000        6.8370000000       18.3910000000  P2PROA    2             -23.8200000000
       457        28  ILE       HG11           46.6468010707        6.0065652457       18.5262121705  P2PROA    2             -23.6847878295
       458        28  ILE       HG12           46.4332448861        7.6824842910       17.8848660655  P2PROA    2             -24.3261339345
       459        28  ILE       CD             44.8370000000        6.3380000000       17.4490000000  P2PROA    2             -24.7620000000
       460        28  ILE       HD1            44.0976050137        7.1448615023       17.2577133817  P2PROA    2             -24.9532866183
       461        28  ILE       HD2            44.3087371228        5.4736963022       17.9052582068  P2PROA    2             -24.3057417932
       462        28  ILE       HD3            45.2870865110        6.0324277359       16.4803401915  P2PROA    2             -25.7306598085
       463        28  ILE       C              43.7500000000        8.6290000000       21.0920000000  P2PROA    2             -21.1190000000
       464        28  ILE       O              43.0680000000        7.9040000000       21.8020000000  P2PROA    2             -20.4090000000
       465        29  GLY       N              44.1610000000        9.8670000000       21.4620000000  P2PROA    3             -20.7490000000
       466        29  GLY       HN             44.5665332900       10.5284280285       20.8360459207  P2PROA    3             -21.3749540793
       467        29  GLY       CA             43.9990000000       10.2640000000       22.8820000000  P2PROA    3             -19.3290000000
       468        29  GLY       HA1            44.4979759001       11.2028889073       23.0659759190  P2PROA    3             -19.1450240810
       469        29  GLY       HA2            44.3927760373        9.4970455228       23.5308896133  P2PROA    3             -18.6801103867
       470        29  GLY       C              42.4330000000       10.4050000000       23.0450000000  P2PROA    3             -19.1660000000
       471        29  GLY       O              41.9120000000       10.0610000000       24.1150000000  P2PROA    3             -18.0960000000
       472        30  ALA       N              41.8620000000       10.9610000000       22.0200000000  P2PROA    4             -20.1910000000
       473        30  ALA       HN             42.3403007513       11.2035348216       21.1796823519  P2PROA    4             -21.0313176481
       474        30  ALA       CA             40.3780000000       11.2600000000       22.1050000000  P2PROA    4             -20.1060000000
       475        30  ALA       HA             40.1748517799       11.8147285500       23.0087117093  P2PROA    4             -19.2022882907
       476        30  ALA       CB             40.0610000000       12.0800000000       20.8610000000  P2PROA    4             -21.3500000000
       477        30  ALA       HB1            40.3020605935       11.4960291566       19.9471133307  P2PROA    4             -22.2638866693
       478        30  ALA       HB2            40.6671904600       13.0110062202       20.8571731482  P2PROA    4             -21.3538268518
       479        30  ALA       HB3            38.9803496148       12.3371354113       20.8428278786  P2PROA    4             -21.3681721214
       480        30  ALA       C              39.5840000000        9.9500000000       22.1240000000  P2PROA    4             -20.0870000000
       481        30  ALA       O              38.6760000000        9.7470000000       22.9330000000  P2PROA    4             -19.2780000000
       482        31  VAL       N              39.9360000000        9.0010000000       21.2550000000  P2PROA    5             -20.9560000000
       483        31  VAL       HN             40.6670305688        9.1799126555       20.6039666465  P2PROA    5             -21.6070333535
       484        31  VAL       CA             39.3550000000        7.6580000000       21.1280000000  P2PROA    5             -21.0830000000
       485        31  VAL       HA             38.2812944043        7.7679115365       21.0955828396  P2PROA    5             -21.1154171604
       486        31  VAL       CB             39.8430000000        6.9330000000       19.8730000000  P2PROA    5             -22.3380000000
       487        31  VAL       HB             40.9510797305        6.8582060670       19.8979987952  P2PROA    5             -22.3130012048
       488        31  VAL       CG1            39.2370000000        5.5190000000       19.7980000000  P2PROA    5             -22.4130000000
       489        31  VAL       HG11           38.1281887914        5.5800985585       19.7644489975  P2PROA    5             -22.4465510025
       490        31  VAL       HG12           39.5329658657        4.9327326220       20.6940741423  P2PROA    5             -21.5169258577
       491        31  VAL       HG13           39.5917737256        5.0037550338       18.8798974300  P2PROA    5             -23.3311025700
       492        31  VAL       CG2            39.7450000000        7.5870000000       18.5580000000  P2PROA    5             -23.6530000000
       493        31  VAL       HG21           40.1743825818        8.6104681765       18.6076436318  P2PROA    5             -23.6033563682
       494        31  VAL       HG22           38.6796789168        7.6637507835       18.2522968635  P2PROA    5             -23.9587031365
       495        31  VAL       HG23           40.3100452203        7.0016185905       17.8014905122  P2PROA    5             -24.4095094878
       496        31  VAL       C              39.5360000000        6.8960000000       22.4160000000  P2PROA    5             -19.7950000000
       497        31  VAL       O              38.6260000000        6.3140000000       23.0850000000  P2PROA    5             -19.1260000000
       498        32  LEU       N              40.7520000000        7.0210000000       22.9890000000  P2PROA    6             -19.2220000000
       499        32  LEU       HN             41.4895195929        7.5311633909       22.5537499442  P2PROA    6             -19.6572500558
       500        32  LEU       CA             41.0620000000        6.4320000000       24.2540000000  P2PROA    6             -17.9570000000
       501        32  LEU       HA             40.6786369808        5.4233223447       24.2872586612  P2PROA    6             -17.9237413388
       502        32  LEU       CB             42.6270000000        6.4610000000       24.3310000000  P2PROA    6             -17.8800000000
       503        32  LEU       HB1            42.9813319879        7.4944631938       24.1304682585  P2PROA    6             -18.0805317415
       504        32  LEU       HB2            43.0413522124        5.7823511654       23.5553980961  P2PROA    6             -18.6556019039
       505        32  LEU       CG             43.1250000000        6.0230000000       25.6870000000  P2PROA    6             -16.5240000000
       506        32  LEU       HG             42.7094051308        6.7002830027       26.4631469262  P2PROA    6             -15.7478530738
       507        32  LEU       CD1            42.7060000000        4.5840000000       26.0010000000  P2PROA    6             -16.2100000000
       508        32  LEU       HD11           42.9654798352        3.9167657935       25.1514179093  P2PROA    6             -17.0595820907
       509        32  LEU       HD12           41.6083896095        4.5372661481       26.1662921001  P2PROA    6             -16.0447078999
       510        32  LEU       HD13           43.2366270565        4.2251645318       26.9087037701  P2PROA    6             -15.3022962299
       511        32  LEU       CD2            44.6690000000        6.1520000000       25.5730000000  P2PROA    6             -16.6380000000
       512        32  LEU       HD21           44.9486513748        7.2031846292       25.3468872321  P2PROA    6             -16.8641127679
       513        32  LEU       HD22           45.0433758109        5.5013654257       24.7539935875  P2PROA    6             -17.4570064125
       514        32  LEU       HD23           45.1449850581        5.8568914424       26.5324807264  P2PROA    6             -15.6785192736
       515        32  LEU       C              40.2300000000        6.9350000000       25.3410000000  P2PROA    6             -16.8700000000
       516        32  LEU       O              39.6490000000        6.1210000000       26.1820000000  P2PROA    6             -16.0290000000
       517        33  LYS       N              39.9810000000        8.2290000000       25.4900000000  P2PROA    7             -16.7210000000
       518        33  LYS       HN             40.3696766245        8.9395868460       24.9087992781  P2PROA    7             -17.3022007219
       519        33  LYS       CA             39.0790000000        8.6460000000       26.5750000000  P2PROA    7             -15.6360000000
       520        33  LYS       HA             39.5201122229        8.3268189636       27.5074748441  P2PROA    7             -14.7035251559
       521        33  LYS       CB             38.8540000000       10.1760000000       26.5950000000  P2PROA    7             -15.6160000000
       522        33  LYS       HB1            37.9903710642       10.3874779084       27.2595969586  P2PROA    7             -14.9514030414
       523        33  LYS       HB2            38.6031097367       10.4997609549       25.5632539645  P2PROA    7             -16.6477460355
       524        33  LYS       CG             40.0110000000       10.9930000000       27.0670000000  P2PROA    7             -15.1440000000
       525        33  LYS       HG1            40.9169687045       10.7314729229       26.4796022221  P2PROA    7             -15.7313977779
       526        33  LYS       HG2            40.2052399720       10.7801791321       28.1399352108  P2PROA    7             -14.0710647892
       527        33  LYS       CD             39.6910000000       12.4870000000       26.8860000000  P2PROA    7             -15.3250000000
       528        33  LYS       HD1            38.6366062672       12.6652651425       27.1858645472  P2PROA    7             -15.0251354528
       529        33  LYS       HD2            39.8092605891       12.7501757571       25.8135279465  P2PROA    7             -16.3974720535
       530        33  LYS       CE             40.5990000000       13.3940000000       27.7180000000  P2PROA    7             -14.4930000000
       531        33  LYS       HE1            41.5748790126       13.5303019625       27.2049619125  P2PROA    7             -15.0060380875
       532        33  LYS       HE2            40.7557258211       12.9548150177       28.7263053703  P2PROA    7             -13.4846946297
       533        33  LYS       NZ             39.9660000000       14.7550000000       27.8920000000  P2PROA    7             -14.3190000000
       534        33  LYS       HZ1            39.0520468856       14.6532559214       28.3777343381  P2PROA    7             -13.8332656619
       535        33  LYS       HZ2            39.8162804776       15.1895264410       26.9590635216  P2PROA    7             -15.2519364784
       536        33  LYS       HZ3            40.5943431221       15.3596785162       28.4586996108  P2PROA    7             -13.7523003892
       537        33  LYS       C              37.6480000000        8.0630000000       26.4270000000  P2PROA    7             -15.7840000000
       538        33  LYS       O              37.0310000000        7.8390000000       27.4800000000  P2PROA    7             -14.7310000000
       539        34  VAL       N              37.1110000000        7.9880000000       25.2300000000  P2PROA    8             -16.9810000000
       540        34  VAL       HN             37.5714367779        8.3466088372       24.4218707468  P2PROA    8             -17.7891292532
       541        34  VAL       CA             35.7920000000        7.3690000000       25.0000000000  P2PROA    8             -17.2110000000
       542        34  VAL       HA             35.1455514095        7.7480004512       25.7761758204  P2PROA    8             -16.4348241796
       543        34  VAL       CB             35.1130000000        7.6000000000       23.6490000000  P2PROA    8             -18.5620000000
       544        34  VAL       HB             34.1735489457        7.0086665429       23.6241079268  P2PROA    8             -18.5868920732
       545        34  VAL       CG1            34.7740000000        9.0450000000       23.3600000000  P2PROA    8             -18.8510000000
       546        34  VAL       HG11           35.7034729749        9.6269927254       23.1819959086  P2PROA    8             -19.0290040914
       547        34  VAL       HG12           34.2383850314        9.4883471120       24.2264952651  P2PROA    8             -17.9845047349
       548        34  VAL       HG13           34.1358855210        9.1095744338       22.4528648640  P2PROA    8             -19.7581351360
       549        34  VAL       CG2            35.7690000000        6.9700000000       22.4850000000  P2PROA    8             -19.7260000000
       550        34  VAL       HG21           35.9728760948        5.8983230013       22.6953899913  P2PROA    8             -19.5156100087
       551        34  VAL       HG22           36.7331883181        7.4794598576       22.2727604149  P2PROA    8             -19.9382395851
       552        34  VAL       HG23           35.1067104241        7.0370889054       21.5955475296  P2PROA    8             -20.6154524704
       553        34  VAL       C              35.7760000000        5.8810000000       25.3260000000  P2PROA    8             -16.8850000000
       554        34  VAL       O              34.7750000000        5.4020000000       25.9540000000  P2PROA    8             -16.2570000000
       555        35  LEU       N              36.8600000000        5.1760000000       24.9950000000  P2PROA    9             -17.2160000000
       556        35  LEU       HN             37.6241304835        5.5218201565       24.4571063566  P2PROA    9             -17.7538936434
       557        35  LEU       CA             36.8990000000        3.7590000000       25.4860000000  P2PROA    9             -16.7250000000
       558        35  LEU       HA             36.0578381911        3.2315480017       25.0612281073  P2PROA    9             -17.1497718927
       559        35  LEU       CB             38.2270000000        3.0880000000       25.0640000000  P2PROA    9             -17.1470000000
       560        35  LEU       HB1            38.2175570505        2.0352410608       25.4171144311  P2PROA    9             -16.7938855689
       561        35  LEU       HB2            39.0650752662        3.6252251529       25.5560359113  P2PROA    9             -16.6549640887
       562        35  LEU       CG             38.4620000000        3.0910000000       23.5960000000  P2PROA    9             -18.6150000000
       563        35  LEU       HG             38.5679391029        4.1333177663       23.2263178154  P2PROA    9             -18.9846821846
       564        35  LEU       CD1            39.7830000000        2.2880000000       23.3380000000  P2PROA    9             -18.8730000000
       565        35  LEU       HD11           39.6754553437        1.2465008404       23.7095301434  P2PROA    9             -18.5014698566
       566        35  LEU       HD12           40.6290498495        2.7698542083       23.8730423113  P2PROA    9             -18.3379576887
       567        35  LEU       HD13           39.9991322877        2.2554685792       22.2487421602  P2PROA    9             -19.9622578398
       568        35  LEU       CD2            37.2650000000        2.5350000000       22.8600000000  P2PROA    9             -19.3510000000
       569        35  LEU       HD21           36.4128898638        3.2448736497       22.9256408199  P2PROA    9             -19.2853591801
       570        35  LEU       HD22           36.9574124782        1.5687141240       23.3138013034  P2PROA    9             -18.8971986966
       571        35  LEU       HD23           37.5173154570        2.3818034513       21.7889622657  P2PROA    9             -20.4220377343
       572        35  LEU       C              36.7780000000        3.6440000000       26.9570000000  P2PROA    9             -15.2540000000
       573        35  LEU       O              36.3280000000        2.5510000000       27.5170000000  P2PROA    9             -14.6940000000
       574        36  THR       N              37.3200000000        4.6270000000       27.6810000000  P2PROA    10            -14.5300000000
       575        36  THR       HN             37.7184786171        5.4490450228       27.2817628915  P2PROA    10            -14.9292371085
       576        36  THR       CA             37.3380000000        4.5080000000       29.1270000000  P2PROA    10            -13.0840000000
       577        36  THR       HA             37.2946838701        3.4588894569       29.3793451860  P2PROA    10            -12.8316548140
       578        36  THR       CB             38.6870000000        5.1790000000       29.7250000000  P2PROA    10            -12.4860000000
       579        36  THR       HB             38.9622673184        4.7472990876       30.7099071888  P2PROA    10            -11.5010928112
       580        36  THR       OG1            38.2850000000        6.5380000000       29.8570000000  P2PROA    10            -12.3540000000
       581        36  THR       HG1            37.8999987367        6.7832830194       29.0124822277  P2PROA    10            -13.1985177723
       582        36  THR       CG2            39.8770000000        5.0490000000       28.7600000000  P2PROA    10            -13.4510000000
       583        36  THR       HG21           40.1385555164        6.0438107904       28.3401652669  P2PROA    10            -13.8708347331
       584        36  THR       HG22           39.6120294744        4.3690373889       27.9223272902  P2PROA    10            -14.2886727098
       585        36  THR       HG23           40.7608564113        4.6489513962       29.3013068072  P2PROA    10            -12.9096931928
       586        36  THR       C              36.0720000000        5.0220000000       29.7530000000  P2PROA    10            -12.4580000000
       587        36  THR       O              35.6940000000        4.5540000000       30.8780000000  P2PROA    10            -11.3330000000
       588        37  THR       N              35.3150000000        5.8700000000       29.0980000000  P2PROA    11            -13.1130000000
       589        37  THR       HN             35.4650057263        6.1720957609       28.1606950252  P2PROA    11            -14.0503049748
       590        37  THR       CA             34.1320000000        6.4050000000       29.8680000000  P2PROA    11            -12.3430000000
       591        37  THR       HA             33.9810998940        5.7925332032       30.7444805791  P2PROA    11            -11.4665194209
       592        37  THR       CB             34.4620000000        7.9250000000       30.2760000000  P2PROA    11            -11.9350000000
       593        37  THR       HB             33.6038992663        8.3943937663       30.8021207850  P2PROA    11            -11.4088792150
       594        37  THR       OG1            34.7020000000        8.5910000000       29.0120000000  P2PROA    11            -13.1990000000
       595        37  THR       HG1            35.6015611960        8.3677611042       28.7618919234  P2PROA    11            -13.4491080766
       596        37  THR       CG2            35.6950000000        7.9590000000       31.1640000000  P2PROA    11            -11.0470000000
       597        37  THR       HG21           36.6139422761        7.8809117440       30.5445096309  P2PROA    11            -11.6664903691
       598        37  THR       HG22           35.6727866958        7.1054141763       31.8747403966  P2PROA    11            -10.3362596034
       599        37  THR       HG23           35.7280931982        8.9152040260       31.7286528151  P2PROA    11            -10.4823471849
       600        37  THR       C              32.8740000000        6.2990000000       29.0710000000  P2PROA    11            -13.1400000000
       601        37  THR       O              31.8230000000        5.8890000000       29.5810000000  P2PROA    11            -12.6300000000
       602        38  GLY       N              32.9180000000        6.6060000000       27.7910000000  P2PROA    12            -14.4200000000
       603        38  GLY       HN             33.7433586656        6.8370187115       27.2831711717  P2PROA    12            -14.9278288283
       604        38  GLY       CA             31.5840000000        6.5950000000       27.0710000000  P2PROA    12            -15.1400000000
       605        38  GLY       HA1            31.6484003692        7.2426510396       26.2092712694  P2PROA    12            -16.0017287306
       606        38  GLY       HA2            30.8206064623        6.9496839026       27.7474653115  P2PROA    12            -14.4635346885
       607        38  GLY       C              31.2640000000        5.1680000000       26.6270000000  P2PROA    12            -15.5840000000
       608        38  GLY       O              30.0600000000        4.9140000000       26.6080000000  P2PROA    12            -15.6030000000
       609        39  LEU       N              32.1950000000        4.2760000000       26.2630000000  P2PROA    13            -15.9480000000
       610        39  LEU       HN             33.1600281684        4.5227566246       26.2639428558  P2PROA    13            -15.9470571442
       611        39  LEU       CA             31.9230000000        2.9190000000       25.8470000000  P2PROA    13            -16.3640000000
       612        39  LEU       HA             31.1143437389        2.9627739582       25.1331055599  P2PROA    13            -17.0778944401
       613        39  LEU       CB             33.1460000000        2.1830000000       25.2030000000  P2PROA    13            -17.0080000000
       614        39  LEU       HB1            33.4797891294        1.3974995645       25.9124101240  P2PROA    13            -16.2985898760
       615        39  LEU       HB2            33.9603628241        2.9264946288       25.0776294737  P2PROA    13            -17.1333705263
       616        39  LEU       CG             32.9130000000        1.5230000000       23.8600000000  P2PROA    13            -18.3510000000
       617        39  LEU       HG             32.8614037813        2.3162711094       23.0848116327  P2PROA    13            -19.1261883673
       618        39  LEU       CD1            33.9990000000        0.5170000000       23.4510000000  P2PROA    13            -18.7600000000
       619        39  LEU       HD11           33.9432898237       -0.3873929791       24.0938769055  P2PROA    13            -18.1171230945
       620        39  LEU       HD12           35.0037425611        0.9757657585       23.5705009013  P2PROA    13            -18.6404990987
       621        39  LEU       HD13           33.8512387970        0.2101224176       22.3935280727  P2PROA    13            -19.8174719273
       622        39  LEU       CD2            31.5870000000        0.8420000000       23.6800000000  P2PROA    13            -18.5310000000
       623        39  LEU       HD21           30.7614535046        1.5754732186       23.8017005399  P2PROA    13            -18.4092994601
       624        39  LEU       HD22           31.4661165173        0.0423174142       24.4416751579  P2PROA    13            -17.7693248421
       625        39  LEU       HD23           31.5231061092        0.4017536135       22.6619848771  P2PROA    13            -19.5490151229
       626        39  LEU       C              31.2510000000        2.0040000000       26.8870000000  P2PROA    13            -15.3240000000
       627        39  LEU       O              30.2320000000        1.3080000000       26.5320000000  P2PROA    13            -15.6790000000
       628        40  PRO       N              31.6890000000        1.9790000000       28.1050000000  P2PROA    14            -14.1060000000
       629        40  PRO       CD             33.0980000000        2.3630000000       28.4420000000  P2PROA    14            -13.7690000000
       630        40  PRO       HD1            33.2969046444        3.4113026262       28.1364501794  P2PROA    14            -14.0745498206
       631        40  PRO       HD2            33.8153733457        1.6789613684       27.9426716714  P2PROA    14            -14.2683283286
       632        40  PRO       CA             31.0260000000        1.2780000000       29.1810000000  P2PROA    14            -13.0300000000
       633        40  PRO       HA             30.9675669260        0.2248626962       28.9584469743  P2PROA    14            -13.2525530257
       634        40  PRO       CB             31.8450000000        1.6140000000       30.3950000000  P2PROA    14            -11.8160000000
       635        40  PRO       HB1            32.0485421629        0.6967224233       30.9878567469  P2PROA    14            -11.2231432531
       636        40  PRO       HB2            31.3028788025        2.3421256211       31.0355032194  P2PROA    14            -11.1754967806
       637        40  PRO       CG             33.1180000000        2.2050000000       29.9080000000  P2PROA    14            -12.3030000000
       638        40  PRO       HG1            33.2654013538        3.1989128876       30.3816901029  P2PROA    14            -11.8293098971
       639        40  PRO       HG2            33.9625417666        1.5423297364       30.1936389800  P2PROA    14            -12.0173610200
       640        40  PRO       C              29.5210000000        1.6700000000       29.3540000000  P2PROA    14            -12.8570000000
       641        40  PRO       O              28.6570000000        0.8010000000       29.4670000000  P2PROA    14            -12.7440000000
       642        41  ALA       N              29.2070000000        2.9520000000       29.3430000000  P2PROA    15            -12.8680000000
       643        41  ALA       HN             29.8973804831        3.6630828772       29.2362178925  P2PROA    15            -12.9747821075
       644        41  ALA       CA             27.8220000000        3.4180000000       29.4870000000  P2PROA    15            -12.7240000000
       645        41  ALA       HA             27.3872215286        2.8964433561       30.3265936802  P2PROA    15            -11.8844063198
       646        41  ALA       CB             27.7410000000        4.9060000000       29.7090000000  P2PROA    15            -12.5020000000
       647        41  ALA       HB1            28.1917192767        5.4454789065       28.8486886360  P2PROA    15            -13.3623113640
       648        41  ALA       HB2            28.2964373961        5.1815845755       30.6308440982  P2PROA    15            -11.5801559018
       649        41  ALA       HB3            26.6787146114        5.2166850731       29.8053256928  P2PROA    15            -12.4056743072
       650        41  ALA       C              27.0230000000        3.0160000000       28.2600000000  P2PROA    15            -13.9510000000
       651        41  ALA       O              25.8720000000        2.5510000000       28.4420000000  P2PROA    15            -13.7690000000
       652        42  LEU       N              27.5700000000        3.1170000000       27.0840000000  P2PROA    16            -15.1270000000
       653        42  LEU       HN             28.4667370880        3.5362663153       26.9710551251  P2PROA    16            -15.2399448749
       654        42  LEU       CA             26.9580000000        2.6490000000       25.8600000000  P2PROA    16            -16.3510000000
       655        42  LEU       HA             25.9794278594        3.0986622749       25.7801234335  P2PROA    16            -16.4308765665
       656        42  LEU       CB             27.8110000000        3.0270000000       24.6690000000  P2PROA    16            -17.5420000000
       657        42  LEU       HB1            28.8295881178        2.6285691564       24.8541386312  P2PROA    16            -17.3568613688
       658        42  LEU       HB2            27.8556606930        4.1348684710       24.6346768744  P2PROA    16            -17.5763231256
       659        42  LEU       CG             27.3840000000        2.5500000000       23.2900000000  P2PROA    16            -18.9210000000
       660        42  LEU       HG             27.2641062184        1.4454893579       23.2883557546  P2PROA    16            -18.9226442454
       661        42  LEU       CD1            26.0310000000        3.2340000000       22.9540000000  P2PROA    16            -19.2570000000
       662        42  LEU       HD11           26.1507952567        4.3385214799       22.9555481794  P2PROA    16            -19.2554518206
       663        42  LEU       HD12           25.2690771464        2.9588067798       23.7142607168  P2PROA    16            -18.4967392832
       664        42  LEU       HD13           25.6863656127        2.9160254543       21.9468389264  P2PROA    16            -20.2641610736
       665        42  LEU       CD2            28.4450000000        2.9700000000       22.2780000000  P2PROA    16            -19.9330000000
       666        42  LEU       HD21           29.4245870795        2.5169356290       22.5415580191  P2PROA    16            -19.6694419809
       667        42  LEU       HD22           28.5534056635        4.0756651643       22.2806186196  P2PROA    16            -19.9303813804
       668        42  LEU       HD23           28.1563740911        2.6248076623       21.2622286500  P2PROA    16            -20.9487713500
       669        42  LEU       C              26.6140000000        1.1690000000       25.8670000000  P2PROA    16            -16.3440000000
       670        42  LEU       O              25.5990000000        0.7340000000       25.2780000000  P2PROA    16            -16.9330000000
       671        43  ILE       N              27.5140000000        0.3650000000       26.4200000000  P2PROA    17            -15.7910000000
       672        43  ILE       HN             28.3816300845        0.7241659336       26.7526983727  P2PROA    17            -15.4583016273
       673        43  ILE       CA             27.3430000000       -1.0560000000       26.5930000000  P2PROA    17            -15.6180000000
       674        43  ILE       HA             27.0343322277       -1.4456908509       25.6350997113  P2PROA    17            -16.5759002887
       675        43  ILE       CB             28.5790000000       -1.8470000000       27.0790000000  P2PROA    17            -15.1320000000
       676        43  ILE       HB             29.0267911889       -1.3054573683       27.9387723300  P2PROA    17            -14.2722276700
       677        43  ILE       CG2            28.2680000000       -3.2880000000       27.5200000000  P2PROA    17            -14.6910000000
       678        43  ILE       HG21           27.8331806190       -3.8609852094       26.6732762813  P2PROA    17            -15.5377237187
       679        43  ILE       HG22           27.5352320854       -3.2781029016       28.3549894200  P2PROA    17            -13.8560105800
       680        43  ILE       HG23           29.2017236690       -3.7930335014       27.8476512980  P2PROA    17            -14.3633487020
       681        43  ILE       CG1            29.5860000000       -1.8580000000       25.8590000000  P2PROA    17            -16.3520000000
       682        43  ILE       HG11           29.8935206038       -0.8103331245       25.6589504257  P2PROA    17            -16.5520495743
       683        43  ILE       HG12           29.0460320585       -2.2511904693       24.9724163813  P2PROA    17            -17.2385836187
       684        43  ILE       CD             30.8560000000       -2.6960000000       26.0500000000  P2PROA    17            -16.1610000000
       685        43  ILE       HD1            30.6028914409       -3.7777820267       26.0521688659  P2PROA    17            -16.1588311341
       686        43  ILE       HD2            31.3345045272       -2.4417487165       27.0198679307  P2PROA    17            -15.1911320693
       687        43  ILE       HD3            31.5670289508       -2.4997634257       25.2192273845  P2PROA    17            -16.9917726155
       688        43  ILE       C              26.0810000000       -1.3920000000       27.4530000000  P2PROA    17            -14.7580000000
       689        43  ILE       O              25.3800000000       -2.2400000000       26.9290000000  P2PROA    17            -15.2820000000
       690        44  SER       N              25.9300000000       -0.7590000000       28.5540000000  P2PROA    18            -13.6570000000
       691        44  SER       HN             26.6424088429       -0.1320405197       28.8516741511  P2PROA    18            -13.3593258489
       692        44  SER       CA             24.8250000000       -0.8270000000       29.4670000000  P2PROA    18            -12.7440000000
       693        44  SER       HA             24.6659021543       -1.8666866954       29.7113822452  P2PROA    18            -12.4996177548
       694        44  SER       CB             25.0760000000       -0.0390000000       30.7200000000  P2PROA    18            -11.4910000000
       695        44  SER       HB1            25.3285224859        1.0114023873       30.4608299825  P2PROA    18            -11.7501700175
       696        44  SER       HB2            25.9162703192       -0.4918448529       31.2884709395  P2PROA    18            -10.9225290605
       697        44  SER       OG             23.9020000000       -0.0460000000       31.5410000000  P2PROA    18            -10.6700000000
       698        44  SER       HG1            23.9038786012       -0.8901218938       31.9982249985  P2PROA    18            -10.2127750015
       699        44  SER       C              23.4990000000       -0.4050000000       28.7730000000  P2PROA    18            -13.4380000000
       700        44  SER       O              22.5570000000       -1.1650000000       28.8590000000  P2PROA    18            -13.3520000000
       701        45  TRP       N              23.5120000000        0.6610000000       28.0500000000  P2PROA    19            -14.1610000000
       702        45  TRP       HN             24.2874969469        1.2827891895       28.1020061376  P2PROA    19            -14.1089938624
       703        45  TRP       CA             22.4920000000        1.0850000000       27.1300000000  P2PROA    19            -15.0810000000
       704        45  TRP       HA             21.5732556373        1.1959616377       27.6864343536  P2PROA    19            -14.5245656464
       705        45  TRP       CB             22.8540000000        2.4100000000       26.4440000000  P2PROA    19            -15.7670000000
       706        45  TRP       HB1            23.7698005813        2.2456273836       25.8383598036  P2PROA    19            -16.3726401964
       707        45  TRP       HB2            23.0672980264        3.1601774595       27.2340929315  P2PROA    19            -14.9769070685
       708        45  TRP       CG             21.8030000000        2.9930000000       25.5330000000  P2PROA    19            -16.6780000000
       709        45  TRP       CD1            20.9170000000        3.9500000000       26.0010000000  P2PROA    19            -16.2100000000
       710        45  TRP       HD1            20.9029720447        4.3532551013       27.0027620384  P2PROA    19            -15.2082379616
       711        45  TRP       NE1            20.0600000000        4.3040000000       24.9890000000  P2PROA    19            -17.2220000000
       712        45  TRP       HE1            19.3366972362        4.9528355426       25.0775049054  P2PROA    19            -17.1334950946
       713        45  TRP       CE2            20.3570000000        3.6240000000       23.8390000000  P2PROA    19            -18.3720000000
       714        45  TRP       CD2            21.4480000000        2.7450000000       24.1700000000  P2PROA    19            -18.0410000000
       715        45  TRP       CE3            21.8790000000        1.8920000000       23.1630000000  P2PROA    19            -19.0480000000
       716        45  TRP       HE3            22.6715800350        1.1793519494       23.3364215449  P2PROA    19            -18.8745784551
       717        45  TRP       CZ3            21.2920000000        1.9500000000       21.9230000000  P2PROA    19            -20.2880000000
       718        45  TRP       HZ3            21.6704490218        1.3008399702       21.1479778004  P2PROA    19            -21.0630221996
       719        45  TRP       CZ2            19.7840000000        3.6900000000       22.5990000000  P2PROA    19            -19.6120000000
       720        45  TRP       HZ2            19.0045603228        4.4015948519       22.3698974988  P2PROA    19            -19.8411025012
       721        45  TRP       CH2            20.2300000000        2.8050000000       21.6100000000  P2PROA    19            -20.6010000000
       722        45  TRP       HH2            19.7677913367        2.7830839052       20.6343245653  P2PROA    19            -21.5766754347
       723        45  TRP       C              22.0830000000       -0.0040000000       26.1990000000  P2PROA    19            -16.0120000000
       724        45  TRP       O              20.8200000000       -0.2440000000       26.0510000000  P2PROA    19            -16.1600000000
       725        46  ILE       N              22.9300000000       -0.5940000000       25.3880000000  P2PROA    20            -16.8230000000
       726        46  ILE       HN             23.8882862741       -0.3248986435       25.3941685846  P2PROA    20            -16.8168314154
       727        46  ILE       CA             22.6280000000       -1.6330000000       24.4450000000  P2PROA    20            -17.7660000000
       728        46  ILE       HA             21.9421890472       -1.2211156560       23.7198702894  P2PROA    20            -18.4911297106
       729        46  ILE       CB             23.9020000000       -2.1920000000       23.7120000000  P2PROA    20            -18.4990000000
       730        46  ILE       HB             24.6535222236       -2.4828629706       24.4761859789  P2PROA    20            -17.7348140211
       731        46  ILE       CG2            23.5990000000       -3.4210000000       22.8210000000  P2PROA    20            -19.3900000000
       732        46  ILE       HG21           22.7339981261       -3.2074636183       22.1573020478  P2PROA    20            -20.0536979522
       733        46  ILE       HG22           23.3501479148       -4.2971355223       23.4571708002  P2PROA    20            -18.7538291998
       734        46  ILE       HG23           24.4815991956       -3.6564518668       22.1886747838  P2PROA    20            -20.0223252162
       735        46  ILE       CG1            24.4810000000       -0.9860000000       22.8480000000  P2PROA    20            -19.3630000000
       736        46  ILE       HG11           24.3771363456       -0.0300891563       23.4045600358  P2PROA    20            -18.8064399642
       737        46  ILE       HG12           23.9303003505       -0.9030066146       21.8866705730  P2PROA    20            -20.3243294270
       738        46  ILE       CD             26.0330000000       -1.3040000000       22.5740000000  P2PROA    20            -19.6370000000
       739        46  ILE       HD1            26.1344230675       -2.2609383872       22.0187493499  P2PROA    20            -20.1922506501
       740        46  ILE       HD2            26.5765302309       -1.3943654223       23.5387088054  P2PROA    20            -18.6722911946
       741        46  ILE       HD3            26.4837986867       -0.4912585736       21.9653243733  P2PROA    20            -20.2456756267
       742        46  ILE       C              21.9170000000       -2.8190000000       25.1310000000  P2PROA    20            -17.0800000000
       743        46  ILE       O              20.9420000000       -3.3650000000       24.5560000000  P2PROA    20            -17.6550000000
       744        47  LYS       N              22.4640000000       -3.1770000000       26.2540000000  P2PROA    21            -15.9570000000
       745        47  LYS       HN             23.2900744641       -2.7472611124       26.6102118437  P2PROA    21            -15.6007881563
       746        47  LYS       CA             21.8880000000       -4.2360000000       27.0540000000  P2PROA    21            -15.1570000000
       747        47  LYS       HA             21.7716048192       -5.0896698575       26.4037216786  P2PROA    21            -15.8072783214
       748        47  LYS       CB             22.6990000000       -4.6460000000       28.2760000000  P2PROA    21            -13.9350000000
       749        47  LYS       HB1            22.0949188630       -5.3008305731       28.9397456913  P2PROA    21            -13.2712543087
       750        47  LYS       HB2            23.0159339982       -3.7486768626       28.8492708523  P2PROA    21            -13.3617291477
       751        47  LYS       CG             23.9440000000       -5.4160000000       27.7400000000  P2PROA    21            -14.4710000000
       752        47  LYS       HG1            24.4485670609       -4.8139521801       26.9543693848  P2PROA    21            -15.2566306152
       753        47  LYS       HG2            23.6256220876       -6.3852169760       27.3000921480  P2PROA    21            -14.9109078520
       754        47  LYS       CD             24.9190000000       -5.6690000000       28.9110000000  P2PROA    21            -13.3000000000
       755        47  LYS       HD1            24.4646041468       -6.3632573569       29.6497898687  P2PROA    21            -12.5612101313
       756        47  LYS       HD2            25.1667758006       -4.7138707041       29.4215041818  P2PROA    21            -12.7894958182
       757        47  LYS       CE             26.1730000000       -6.2870000000       28.3030000000  P2PROA    21            -13.9080000000
       758        47  LYS       HE1            26.6187110691       -5.5869390141       27.5644725402  P2PROA    21            -14.6465274598
       759        47  LYS       HE2            25.9186339792       -7.2500100905       27.8109877614  P2PROA    21            -14.4000122386
       760        47  LYS       NZ             27.1990000000       -6.5640000000       29.3480000000  P2PROA    21            -12.8630000000
       761        47  LYS       HZ1            26.8101042344       -7.2260320396       30.0494796235  P2PROA    21            -12.1615203765
       762        47  LYS       HZ2            27.4627193289       -5.6751298467       29.8191280104  P2PROA    21            -12.3918719896
       763        47  LYS       HZ3            28.0408809914       -6.9837895624       28.9045896305  P2PROA    21            -13.3064103695
       764        47  LYS       C              20.4360000000       -3.9100000000       27.4590000000  P2PROA    21            -14.7520000000
       765        47  LYS       O              19.6850000000       -4.8990000000       27.2400000000  P2PROA    21            -14.9710000000
       766        48  ARG       N              20.0750000000       -2.7280000000       27.8600000000  P2PROA    22            -14.3510000000
       767        48  ARG       HN             20.7662866425       -2.0206397155       27.9659760036  P2PROA    22            -14.2450239964
       768        48  ARG       CA             18.7400000000       -2.2730000000       28.1910000000  P2PROA    22            -14.0200000000
       769        48  ARG       HA             18.3225073539       -2.9748492530       28.8974240997  P2PROA    22            -13.3135759003
       770        48  ARG       CB             18.7330000000       -0.8600000000       28.7930000000  P2PROA    22            -13.4180000000
       771        48  ARG       HB1            17.6948980845       -0.4658941811       28.8296877580  P2PROA    22            -13.3813122420
       772        48  ARG       HB2            19.3538569734       -0.1780864319       28.1734425132  P2PROA    22            -14.0375574868
       773        48  ARG       CG             19.3090000000       -0.9560000000       30.2070000000  P2PROA    22            -12.0040000000
       774        48  ARG       HG1            20.3954046756       -1.1782257533       30.1424754736  P2PROA    22            -12.0685245264
       775        48  ARG       HG2            18.8046229404       -1.7838023500       30.7493742899  P2PROA    22            -11.4616257101
       776        48  ARG       CD             19.1170000000        0.3000000000       30.9570000000  P2PROA    22            -11.2540000000
       777        48  ARG       HD1            19.8011440171        0.2967898417       31.8318277044  P2PROA    22            -10.3791722956
       778        48  ARG       HD2            18.0610077293        0.3499985436       31.2972459752  P2PROA    22            -10.9137540248
       779        48  ARG       NE             19.3820000000        1.5620000000       30.2200000000  P2PROA    22            -11.9910000000
       780        48  ARG       HE             18.6712816102        1.9976306929       29.6680042390  P2PROA    22            -12.5429957610
       781        48  ARG       CZ             20.6240000000        2.1040000000       30.3220000000  P2PROA    22            -11.8890000000
       782        48  ARG       NH1            21.6640000000        1.5540000000       30.9590000000  P2PROA    22            -11.2520000000
       783        48  ARG       HH11           21.5612673213        0.6686394381       31.4124122540  P2PROA    22            -10.7985877460
       784        48  ARG       HH12           22.5440936210        2.0282562174       30.9817213231  P2PROA    22            -11.2292786769
       785        48  ARG       NH2            20.8700000000        3.2710000000       29.7130000000  P2PROA    22            -12.4980000000
       786        48  ARG       HH21           20.1462292332        3.7270998383       29.1951884372  P2PROA    22            -13.0158115628
       787        48  ARG       HH22           21.7774712625        3.6863573911       29.7760408236  P2PROA    22            -12.4349591764
       788        48  ARG       C              17.8070000000       -2.3650000000       27.0340000000  P2PROA    22            -15.1770000000
       789        48  ARG       O              16.6480000000       -2.8990000000       27.1150000000  P2PROA    22            -15.0960000000
       790        49  LYS       N              18.2570000000       -1.9370000000       25.8880000000  P2PROA    23            -16.3230000000
       791        49  LYS       HN             19.1842285440       -1.5820041719       25.8069094239  P2PROA    23            -16.4040905761
       792        49  LYS       CA             17.5000000000       -1.9280000000       24.6610000000  P2PROA    23            -17.5500000000
       793        49  LYS       HA             16.5353480629       -1.4839246019       24.8570504170  P2PROA    23            -17.3539495830
       794        49  LYS       CB             18.2570000000       -1.1280000000       23.6220000000  P2PROA    23            -18.5890000000
       795        49  LYS       HB1            17.9520936059       -1.4689996417       22.6098252925  P2PROA    23            -19.6011747075
       796        49  LYS       HB2            19.3456530424       -1.3081343467       23.7490136750  P2PROA    23            -18.4619863250
       797        49  LYS       CG             17.9790000000        0.3880000000       23.7480000000  P2PROA    23            -18.4630000000
       798        49  LYS       HG1            18.8903631788        0.9797158206       23.5173115372  P2PROA    23            -18.6936884628
       799        49  LYS       HG2            17.6336716309        0.6449831939       24.7720290906  P2PROA    23            -17.4389709094
       800        49  LYS       CD             16.8580000000        0.6570000000       22.6970000000  P2PROA    23            -19.5140000000
       801        49  LYS       HD1            16.0945670013       -0.1470890060       22.7641107223  P2PROA    23            -19.4468892777
       802        49  LYS       HD2            17.3023198050        0.6463005470       21.6789831265  P2PROA    23            -20.5320168735
       803        49  LYS       CE             16.1970000000        1.9860000000       22.9330000000  P2PROA    23            -19.2780000000
       804        49  LYS       HE1            16.9730387477        2.7462189593       23.1651419662  P2PROA    23            -19.0458580338
       805        49  LYS       HE2            15.4843890170        1.8965425391       23.7804915021  P2PROA    23            -18.4305084979
       806        49  LYS       NZ             15.4120000000        2.4930000000       21.7340000000  P2PROA    23            -20.4770000000
       807        49  LYS       HZ1            14.6638817776        1.8111257593       21.4953231365  P2PROA    23            -20.7156768635
       808        49  LYS       HZ2            16.0523113105        2.6034579775       20.9219654583  P2PROA    23            -21.2890345417
       809        49  LYS       HZ3            14.9829067718        3.4120060439       21.9640141927  P2PROA    23            -20.2469858073
       810        49  LYS       C              17.2160000000       -3.3610000000       24.1110000000  P2PROA    23            -18.1000000000
       811        49  LYS       O              16.2040000000       -3.5540000000       23.4000000000  P2PROA    23            -18.8110000000
       812        50  ARG       N              18.1550000000       -4.2680000000       24.3670000000  P2PROA    24            -17.8440000000
       813        50  ARG       HN             18.9809276408       -4.0316763744       24.8721891201  P2PROA    24            -17.3388108799
       814        50  ARG       CA             18.0590000000       -5.6740000000       23.9350000000  P2PROA    24            -18.2760000000
       815        50  ARG       HA             17.6974382499       -5.6860418602       22.9175198401  P2PROA    24            -19.2934801599
       816        50  ARG       CB             19.4460000000       -6.3790000000       24.0230000000  P2PROA    24            -18.1880000000
       817        50  ARG       HB1            19.3036930735       -7.4552349476       24.2589782683  P2PROA    24            -17.9520217317
       818        50  ARG       HB2            20.0519102739       -5.9121006150       24.8286651730  P2PROA    24            -17.3823348270
       819        50  ARG       CG             20.1820000000       -6.2360000000       22.6690000000  P2PROA    24            -19.5420000000
       820        50  ARG       HG1            20.2005361782       -5.1659823501       22.3710560770  P2PROA    24            -19.8399439230
       821        50  ARG       HG2            19.6395991231       -6.8156527226       21.8919183105  P2PROA    24            -20.3190816895
       822        50  ARG       CD             21.5770000000       -6.7420000000       22.7780000000  P2PROA    24            -19.4330000000
       823        50  ARG       HD1            22.1374458034       -6.0958781323       23.4865870468  P2PROA    24            -18.7244129532
       824        50  ARG       HD2            22.0494977006       -6.7073894846       21.7734022674  P2PROA    24            -20.4375977326
       825        50  ARG       NE             21.7150000000       -8.1150000000       23.2610000000  P2PROA    24            -18.9500000000
       826        50  ARG       HE             21.7868032300       -8.2983471737       24.2414168269  P2PROA    24            -17.9695831731
       827        50  ARG       CZ             21.7450000000       -9.1360000000       22.3740000000  P2PROA    24            -19.8370000000
       828        50  ARG       NH1            21.5080000000       -8.8480000000       21.1250000000  P2PROA    24            -21.0860000000
       829        50  ARG       HH11           21.6649363056       -9.5345828051       20.4150880000  P2PROA    24            -21.7959120000
       830        50  ARG       HH12           21.1692456062       -7.9404736953       20.8767230036  P2PROA    24            -21.3342769964
       831        50  ARG       NH2            22.1340000000      -10.3750000000       22.6990000000  P2PROA    24            -19.5120000000
       832        50  ARG       HH21           22.4202886963      -10.5798231834       23.6349947895  P2PROA    24            -18.5760052105
       833        50  ARG       HH22           22.1382958271      -11.0957146689       22.0057814833  P2PROA    24            -20.2052185167
       834        50  ARG       C              16.9960000000       -6.3550000000       24.7700000000  P2PROA    24            -17.4410000000
       835        50  ARG       O              16.2240000000       -7.1660000000       24.1820000000  P2PROA    24            -18.0290000000
       836        51  GLN       N              16.8890000000       -6.0800000000       26.0190000000  P2PROA    25            -16.1920000000
       837        51  GLN       HN             17.4914559830       -5.4306717774       26.4765139358  P2PROA    25            -15.7344860642
       838        51  GLN       CA             15.8360000000       -6.7300000000       26.8720000000  P2PROA    25            -15.3390000000
       839        51  GLN       HA             15.6987070496       -7.7445418331       26.5284079854  P2PROA    25            -15.6825920146
       840        51  GLN       CB             16.2830000000       -6.7130000000       28.3370000000  P2PROA    25            -13.8740000000
       841        51  GLN       HB1            15.5126808238       -7.1896439711       28.9802131540  P2PROA    25            -13.2307868460
       842        51  GLN       HB2            16.4397836695       -5.6678706001       28.6796772364  P2PROA    25            -13.5313227636
       843        51  GLN       CG             17.6070000000       -7.5050000000       28.4110000000  P2PROA    25            -13.8000000000
       844        51  GLN       HG1            18.2240842293       -7.2544158037       27.5221870074  P2PROA    25            -14.6888129926
       845        51  GLN       HG2            17.3753765681       -8.5911885268       28.4000916934  P2PROA    25            -13.8109083066
       846        51  GLN       CD             18.4130000000       -7.2050000000       29.6470000000  P2PROA    25            -12.5640000000
       847        51  GLN       OE1            19.5960000000       -7.5590000000       29.7340000000  P2PROA    25            -12.4770000000
       848        51  GLN       NE2            17.7570000000       -6.5120000000       30.5870000000  P2PROA    25            -11.6240000000
       849        51  GLN       HE21           18.2167150984       -6.2690314691       31.4411828384  P2PROA    25            -10.7698171616
       850        51  GLN       HE22           16.8075396560       -6.2376004589       30.4345862636  P2PROA    25            -11.7764137364
       851        51  GLN       C              14.4630000000       -6.1620000000       26.6570000000  P2PROA    25            -15.5540000000
       852        51  GLN       O              13.4350000000       -6.7990000000       26.9840000000  P2PROA    25            -15.2270000000
       853        52  GLN       N              14.3630000000       -4.9450000000       26.1470000000  P2PROA    26            -16.0640000000
       854        52  GLN       HN             15.1601529904       -4.3500226313       26.0935251431  P2PROA    26            -16.1174748569
       855        52  GLN       CA             13.1320000000       -4.3600000000       25.6280000000  P2PROA    26            -16.5830000000
       856        52  GLN       HA             12.3648208486       -4.5697304419       26.3573783779  P2PROA    26            -15.8536216221
       857        52  GLN       CB             13.1440000000       -2.8740000000       25.3490000000  P2PROA    26            -16.8620000000
       858        52  GLN       HB1            12.2366560344       -2.6271292315       24.7589703572  P2PROA    26            -17.4520296428
       859        52  GLN       HB2            14.0435730526       -2.6452706839       24.7400628517  P2PROA    26            -17.4709371483
       860        52  GLN       CG             13.1660000000       -1.9720000000       26.5860000000  P2PROA    26            -15.6250000000
       861        52  GLN       HG1            13.9371044585       -2.3198457646       27.3061544179  P2PROA    26            -14.9048455821
       862        52  GLN       HG2            12.1736478646       -1.9741659331       27.0854533969  P2PROA    26            -15.1255466031
       863        52  GLN       CD             13.5060000000       -0.5510000000       26.0950000000  P2PROA    26            -16.1160000000
       864        52  GLN       OE1            13.0830000000       -0.1800000000       24.9720000000  P2PROA    26            -17.2390000000
       865        52  GLN       NE2            14.3040000000        0.1170000000       26.9210000000  P2PROA    26            -15.2900000000
       866        52  GLN       HE21           14.6217043250       -0.3130020679       27.7660811698  P2PROA    26            -14.4449188302
       867        52  GLN       HE22           14.5869064769        1.0497690049       26.6976036954  P2PROA    26            -15.5133963046
       868        52  GLN       C              12.6180000000       -5.0710000000       24.3740000000  P2PROA    26            -17.8370000000
       869        52  GLN       O              11.4090000000       -5.3440000000       24.6140000000  P2PROA    26            -17.5970000000
       870        52  GLN       NT             13.5104939002       -5.2360940501       23.3611828434  P2PROA    26            -18.8498171566
       871        52  GLN       HT1            14.4469763051       -4.8996392902       23.4601722359  P2PROA    26            -18.7508277641
       872        52  GLN       HT2            13.2302570101       -5.6939414939       22.5174749534  P2PROA    26            -19.6935250466
