* GENERATED BY CHARMM-GUI (HTTP://WWW.CHARMM-GUI.ORG) V3.7 ON DEC, 01. 2025. JOB
* GENERATES LIPID PACKING USING BIG SPHERES
*  DATE:    12/ 1/25      8: 2:39      CREATED BY USER: charmm-gui
*
        94  EXT
         1         1  POPC      POLO          -15.2412078014        0.3604410437       12.1459835353  HEAD      1               0.0000000000
         2         2  POPC      POLO          -14.5505372876       -8.1607863837       11.9691041624  HEAD      2               0.0000000000
         3         3  POPC      POLO          -11.8511285019      -23.6282185689       12.0232411003  HEAD      3               0.0000000000
         4         4  POPC      POLO          -25.2248641366       13.9356568560       12.0255767787  HEAD      4               0.0000000000
         5         5  POPC      POLO           24.8033918505      -17.0671151902       12.0088760145  HEAD      5               0.0000000000
         6         6  POPC      POLO           -6.1664498697      -30.1043520447       12.0925533976  HEAD      6               0.0000000000
         7         7  POPC      POLO           17.1800473032       -2.8628701454       11.9903995830  HEAD      7               0.0000000000
         8         8  POPC      POLO           19.7716356041      -24.2886243520       12.0617654911  HEAD      8               0.0000000000
         9         9  POPC      POLO           -2.9718626783      -21.7613200543       12.0513885639  HEAD      9               0.0000000000
        10        10  POPC      POLO          -29.7237857305        6.1395216096       12.0279707266  HEAD      10              0.0000000000
        11        11  POPC      POLO           28.9790669596       -9.6366121340       11.9676275539  HEAD      11              0.0000000000
        12        12  POPC      POLO            6.8814503863       -2.4297476139       12.0044150727  HEAD      12              0.0000000000
        13        13  POPC      POLO          -22.9028373102       -8.9798404392       12.0673481190  HEAD      13              0.0000000000
        14        14  POPC      POLO            2.3935247679      -28.3817372819       12.0708179253  HEAD      14              0.0000000000
        15        15  POPC      POLO          -17.1608070431      -16.4573146724       11.8337396485  HEAD      15              0.0000000000
        16        16  POPC      POLO           -1.0056195083       22.5279074108       12.1911311322  HEAD      16              0.0000000000
        17        17  POPC      POLO           14.9814188214      -17.6996797602       11.9503717023  HEAD      17              0.0000000000
        18        18  POPC      POLO           25.2158276649       12.9642530211       12.0315988080  HEAD      18              0.0000000000
        19        19  POPC      POLO           14.3190572662       20.1702903425       12.0845209154  HEAD      19              0.0000000000
        20        20  POPC      POLO           15.9723383455       11.9377003741       12.0027980028  HEAD      20              0.0000000000
        21        21  POPC      POLO           21.3404768476        5.2882954741       11.9921250115  HEAD      21              0.0000000000
        22        22  POPC      POLO          -15.6200420633       14.9623114242       11.8762934935  HEAD      22              0.0000000000
        23        23  POPC      POLO           10.3687245982      -24.9088777275       11.9854408511  HEAD      23              0.0000000000
        24        24  POPC      POLO          -20.9200761260      -24.1040688858       12.0142468086  HEAD      24              0.0000000000
        25        25  POPC      POLO          -20.8461719553       21.6718929486       11.9657420640  HEAD      25              0.0000000000
        26        26  POPC      POLO          -11.1987198886        7.9624265026       12.0767816715  HEAD      26              0.0000000000
        27        27  POPC      POLO          -10.5339573003       21.9491848015       12.0702788697  HEAD      27              0.0000000000
        28        28  POPC      POLO           26.3736773518       -1.5966260641       11.9753089698  HEAD      28              0.0000000000
        29        29  POPC      POLO           16.2090867062       28.4648834004       12.0181179979  HEAD      29              0.0000000000
        30        30  POPC      POLO           -6.4551008306        1.2892258597       11.9849834990  HEAD      30              0.0000000000
        31        31  POPC      POLO           10.7701410100       -9.9245863687       11.9674383690  HEAD      31              0.0000000000
        32        32  POPC      POLO           -8.6201557534      -15.5648181790       12.0177462624  HEAD      32              0.0000000000
        33        33  POPC      POLO          -16.0030954864       28.8844761197       12.0680895997  HEAD      33              0.0000000000
        34        34  POPC      POLO           25.0168719428       28.9865942216       11.9978975900  HEAD      34              0.0000000000
        35        35  POPC      POLO            5.1601150686      -16.9210480045       11.8828046344  HEAD      35              0.0000000000
        36        36  POPC      POLO          -29.5309200372       21.2222837149       12.1487374902  HEAD      36              0.0000000000
        37        37  POPC      POLO            7.7412461751       25.3535897503       11.9735673389  HEAD      37              0.0000000000
        38        38  POPC      POLO            6.9134808024       16.4609771232       11.9530124859  HEAD      38              0.0000000000
        39        39  POPC      POLO           -5.7332495033       14.7828655328       11.9123008042  HEAD      39              0.0000000000
        40        40  POPC      POLO          -25.5830533157       28.9177363873       12.0258274939  HEAD      40              0.0000000000
        41        41  POPC      POLO          -24.8656590211       -1.0044734859       11.9775715396  HEAD      41              0.0000000000
        42        42  POPC      POLO           12.5928146686        4.1456550360       11.9640957799  HEAD      42              0.0000000000
        43        43  POPC      POLO           29.6369647328      -24.3662549448       11.9881881321  HEAD      43              0.0000000000
        44        44  POPC      POLO          -20.1849255854        7.0395744511       12.0187825364  HEAD      44              0.0000000000
        45        45  POPC      POLO           22.4430173722       21.1989055896       11.9695577980  HEAD      45              0.0000000000
        46        46  POPC      POLO          -26.0832157305      -17.1936391740       11.9734599075  HEAD      46              0.0000000000
        47        47  POPC      POLO           19.7015498571      -10.7326216244       12.0709254740  HEAD      47              0.0000000000
        48        48  POPC      POLO          -21.5017173070       25.6314451212      -12.0777113390  HEAD      48              0.0000000000
        49        49  POPC      POLO          -20.2333983139      -11.7939286390      -11.9574500777  HEAD      49              0.0000000000
        50        50  POPC      POLO           22.7050478004        8.4182329983      -11.9710135525  HEAD      50              0.0000000000
        51        51  POPC      POLO          -10.3623195402       -9.5638096012      -11.9689749557  HEAD      51              0.0000000000
        52        52  POPC      POLO          -27.2637233815      -27.6659971031      -12.1367159090  HEAD      52              0.0000000000
        53        53  POPC      POLO           26.1525515820       16.3513930822      -11.9467745910  HEAD      53              0.0000000000
        54        54  POPC      POLO           -1.5246171838       11.1212940687      -11.9478379531  HEAD      54              0.0000000000
        55        55  POPC      POLO          -14.1253955351      -18.0867624114      -11.9537596903  HEAD      55              0.0000000000
        56        56  POPC      POLO           18.2106273729      -22.3382830494      -12.1105188081  HEAD      56              0.0000000000
        57        57  POPC      POLO           -8.8309038733      -25.3070211928      -12.0193347657  HEAD      57              0.0000000000
        58        58  POPC      POLO          -28.4402513566        9.8485315392      -11.9749173401  HEAD      58              0.0000000000
        59        59  POPC      POLO           14.7655337052       29.5855116225      -11.7751254216  HEAD      59              0.0000000000
        60        60  POPC      POLO          -16.9956457071       -3.9100991943      -12.0150790017  HEAD      60              0.0000000000
        61        61  POPC      POLO           28.2653542004        1.8160988917      -11.9721607548  HEAD      61              0.0000000000
        62        62  POPC      POLO           14.1406188139        7.5934394052      -11.8419703431  HEAD      62              0.0000000000
        63        63  POPC      POLO           -1.0132588826      -10.0442723144      -12.1418073366  HEAD      63              0.0000000000
        64        64  POPC      POLO          -23.3185270758      -19.7073271702      -11.9910543304  HEAD      64              0.0000000000
        65        65  POPC      POLO          -10.5648927885       11.7781447919      -11.9515911444  HEAD      65              0.0000000000
        66        66  POPC      POLO           11.1693361266       21.5899842359      -12.0332365648  HEAD      66              0.0000000000
        67        67  POPC      POLO          -12.4618154012       26.7485099825      -11.8835591279  HEAD      67              0.0000000000
        68        68  POPC      POLO          -14.3951983575        3.9648935168      -12.0328260025  HEAD      68              0.0000000000
        69        69  POPC      POLO          -17.7676098268      -26.3474733342      -11.9785201730  HEAD      69              0.0000000000
        70        70  POPC      POLO            4.1799401450      -16.7606031850      -12.0548530771  HEAD      70              0.0000000000
        71        71  POPC      POLO            2.0165127080       19.9102665768      -12.0088282276  HEAD      71              0.0000000000
        72        72  POPC      POLO          -15.6612888012       18.6448028860      -12.0339438042  HEAD      72              0.0000000000
        73        73  POPC      POLO           12.6057104969      -15.6004813878      -11.9279159322  HEAD      73              0.0000000000
        74        74  POPC      POLO           -3.4547185218       27.2585868088      -11.9444140308  HEAD      74              0.0000000000
        75        75  POPC      POLO           29.6618939548       24.1699300842      -12.1680361777  HEAD      75              0.0000000000
        76        76  POPC      POLO           27.0937611980      -20.8627561681      -12.1547774480  HEAD      76              0.0000000000
        77        77  POPC      POLO           17.1781003184       15.5153617302      -12.1052222489  HEAD      77              0.0000000000
        78        78  POPC      POLO          -22.9182076210        2.8528254498      -12.0949948306  HEAD      78              0.0000000000
        79        79  POPC      POLO          -29.7108710124      -12.9339878610      -12.0135175348  HEAD      79              0.0000000000
        80        80  POPC      POLO           23.8993720051      -29.0948829015      -12.0823246218  HEAD      80              0.0000000000
        81        81  POPC      POLO          -24.8970873111       17.6182597090      -12.0620979359  HEAD      81              0.0000000000
        82        82  POPC      POLO           18.9430408992        0.1846581709      -11.9559139289  HEAD      82              0.0000000000
        83        83  POPC      POLO           14.0936941688       -7.0587682712      -11.9925257353  HEAD      83              0.0000000000
        84        84  POPC      POLO          -25.9677090168       -5.2349830601      -11.8036648788  HEAD      84              0.0000000000
        85        85  POPC      POLO          -19.5822267516       10.8277441588      -11.9816678079  HEAD      85              0.0000000000
        86        86  POPC      POLO            7.1859097101       12.5550527959      -12.0876076815  HEAD      86              0.0000000000
        87        87  POPC      POLO           21.1926621422      -13.9310675615      -11.8753199053  HEAD      87              0.0000000000
        88        88  POPC      POLO            9.3559675812      -23.8030840806      -11.8869872529  HEAD      88              0.0000000000
        89        89  POPC      POLO           -5.3100995054      -17.3737819613      -12.0555752113  HEAD      89              0.0000000000
        90        90  POPC      POLO           20.5497233081       23.2121089487      -12.0397588088  HEAD      90              0.0000000000
        91        91  POPC      POLO           24.8362345402       -6.1886962226      -12.1192979388  HEAD      91              0.0000000000
        92        92  POPC      POLO           -6.8864528370       19.4264532970      -12.0809215341  HEAD      92              0.0000000000
        93        93  POPC      POLO            5.6864341862       28.4739856065      -11.8482970967  HEAD      93              0.0000000000
        94        94  POPC      POLO           -0.1418495822      -24.2354908773      -11.9258029589  HEAD      94              0.0000000000
