;;
;; Generated by CHARMM-GUI FF-Converter
;;
;; Correspondance:
;; jul316@lehigh.edu or wonpil@lehigh.edu
;;
;; The main GROMACS topology file
;;

; Include forcefield parameters
#include "toppar/forcefield.itp"
#include "toppar/PROA.itp"
#include "toppar/P2PROA.itp"
#include "toppar/POPC.itp"
#include "toppar/SOD.itp"
#include "toppar/CLA.itp"
#include "toppar/TIP3.itp"

[ system ]
; Name
Title

[ molecules ]
; Compound	#mols
PROA  	           1
P2PROA	           1
POPC  	          94
SOD   	          12
CLA   	          24
TIP3  	        4848
